version 2
run General-0-20141209-12:22:13-4126
attr configname General
attr datetime 20141209-12:22:13
attr experiment General
attr inifile /home/achraf/Developpement/omnetpp-4.1/projects/INET-OverSim-20101019/src/httptools/videocomponents/client/test/omnetpp.ini
attr iterationvars ""
attr iterationvars2 $repetition=0
attr measurement ""
attr network TestNetwork
attr processid 4126
attr repetition 0
attr replication #0
attr resultdir results
attr runnumber 0
attr seedset 0

vector 2  TestNetwork.client.tcpApp[0]  rtt  ETV
vector 1  TestNetwork.client.tcpApp[0]  sampledRate  ETV
vector 0  TestNetwork.client.tcpApp[0]  rate  ETV
vector 6  TestNetwork.client.tcpApp[0]  bufferSize  ETV
vector 3  TestNetwork.client.tcpApp[0]  quality  ETV
vector 4  TestNetwork.client.tcpApp[0]  missedBlocks  ETV
6	4506	7.493767023042	8
6	10132	9.493767023042	18
6	16285	11.493767023042	27
6	22464	13.493767023042	35
6	28643	15.493767023042	42
6	34890	17.493767023042	48
6	41073	19.493767023042	53
6	47262	21.493767023042	58
6	53452	23.493767023042	63
6	59631	25.493767023042	67
6	65810	27.493767023042	70
6	71989	29.493767023042	73
6	78168	31.493767023042	76
6	84353	33.493767023042	79
6	90532	35.493767023042	82
6	96711	37.493767023042	85
6	102890	39.493767023042	87
6	109080	41.493767023042	89
6	115259	43.493767023042	91
6	121507	45.493767023042	93
6	127696	47.493767023042	95
6	133898	49.493767023042	98
6	140077	51.493767023042	100
6	146256	53.493767023042	102
6	152435	55.493767023042	104
6	158614	57.493767023042	106
6	164793	59.493767023042	108
6	170972	61.493767023042	109
6	177151	63.493767023042	110
6	183330	65.493767023042	111
6	189509	67.493767023042	112
6	195688	69.493767023042	113
6	201935	71.493767023042	114
6	208118	73.493767023042	115
6	214307	75.493767023042	116
6	220495	77.493767023042	118
6	226674	79.493767023042	119
6	232853	81.493767023042	120
6	239032	83.493767023042	121
6	245211	85.493767023042	122
6	251390	87.493767023042	123
6	257571	89.493767023042	124
6	263750	91.493767023042	125
6	269929	93.493767023042	126
6	276108	95.493767023042	127
6	282293	97.493767023042	128
6	288540	99.493767023042	129
6	294729	101.493767023042	130
6	300935	103.493767023042	132
6	307118	105.493767023042	133
6	313297	107.493767023042	134
6	319476	109.493767023042	135
6	325659	111.493767023042	136
6	331838	113.493767023042	137
6	338017	115.493767023042	138
6	344196	117.493767023042	139
6	350375	119.493767023042	140
6	356554	121.493767023042	141
6	362733	123.493767023042	141
6	368912	125.493767023042	141
6	375163	127.493767023042	141
6	381352	129.493767023042	141
6	387540	131.493767023042	142
6	393719	133.493767023042	142
6	399898	135.493767023042	142
6	406077	137.493767023042	142
6	412256	139.493767023042	142
6	418435	141.493767023042	142
6	424614	143.493767023042	142
6	430793	145.493767023042	142
6	436972	147.493767023042	142
6	443151	149.493767023042	142
6	449330	151.493767023042	142
6	455579	153.493767023042	142
6	461772	155.493767023042	142
6	467974	157.493767023042	143
6	474157	159.493767023042	143
6	480336	161.493767023042	143
6	486520	163.493767023042	143
6	492699	165.493767023042	143
6	498879	167.493767023042	143
6	505058	169.493767023042	143
6	511237	171.493767023042	143
6	517416	173.493767023042	143
6	523599	175.493767023042	143
6	529778	177.493767023042	143
6	535957	179.493767023042	143
6	542208	181.493767023042	143
6	548397	183.493767023042	143
6	554585	185.493767023042	144
6	560764	187.493767023042	139
6	566943	189.493767023042	126
6	573122	191.493767023042	115
6	579301	193.493767023042	102
6	585480	195.493767023042	90
6	591659	197.493767023042	78
6	597838	199.493767023042	66
6	604017	201.493767023042	54
6	610196	203.493767023042	42
6	616375	205.493767023042	30
6	616488	207.493767023042	0
4	616471	205.530535136801	99
3	4506	7.493767023042	1
3	10132	9.493767023042	3
3	16285	11.493767023042	4
3	22464	13.493767023042	5
3	28643	15.493767023042	6
3	34890	17.493767023042	7
3	41073	19.493767023042	7
3	47262	21.493767023042	8
3	53452	23.493767023042	8
3	59631	25.493767023042	9
3	65810	27.493767023042	9
3	71989	29.493767023042	9
3	78168	31.493767023042	9
3	84353	33.493767023042	9
3	90532	35.493767023042	9
3	96711	37.493767023042	10
3	102890	39.493767023042	10
3	109080	41.493767023042	10
3	115259	43.493767023042	10
3	121507	45.493767023042	10
3	127696	47.493767023042	10
3	133898	49.493767023042	10
3	140077	51.493767023042	10
3	146256	53.493767023042	10
3	152435	55.493767023042	10
3	158614	57.493767023042	10
3	164793	59.493767023042	11
3	170972	61.493767023042	11
3	177151	63.493767023042	11
3	183330	65.493767023042	11
3	189509	67.493767023042	11
3	195688	69.493767023042	11
3	201935	71.493767023042	11
3	208118	73.493767023042	11
3	214307	75.493767023042	11
3	220495	77.493767023042	11
3	226674	79.493767023042	11
3	232853	81.493767023042	11
3	239032	83.493767023042	11
3	245211	85.493767023042	11
3	251390	87.493767023042	11
3	257571	89.493767023042	11
3	263750	91.493767023042	11
3	269929	93.493767023042	11
3	276108	95.493767023042	11
3	282293	97.493767023042	11
3	288540	99.493767023042	11
3	294729	101.493767023042	11
3	300935	103.493767023042	11
3	307118	105.493767023042	11
3	313297	107.493767023042	11
3	319476	109.493767023042	11
3	325659	111.493767023042	11
3	331838	113.493767023042	11
3	338017	115.493767023042	11
3	344196	117.493767023042	11
3	350375	119.493767023042	11
3	356554	121.493767023042	12
3	362733	123.493767023042	12
3	368912	125.493767023042	12
3	375163	127.493767023042	12
3	381352	129.493767023042	12
3	387540	131.493767023042	12
3	393719	133.493767023042	12
3	399898	135.493767023042	12
3	406077	137.493767023042	12
3	412256	139.493767023042	12
3	418435	141.493767023042	12
3	424614	143.493767023042	12
3	430793	145.493767023042	12
3	436972	147.493767023042	12
3	443151	149.493767023042	12
3	449330	151.493767023042	12
3	455579	153.493767023042	12
3	461772	155.493767023042	12
3	467974	157.493767023042	12
3	474157	159.493767023042	12
3	480336	161.493767023042	12
3	486520	163.493767023042	12
3	492699	165.493767023042	12
3	498879	167.493767023042	12
3	505058	169.493767023042	12
3	511237	171.493767023042	12
3	517416	173.493767023042	12
3	523599	175.493767023042	12
3	529778	177.493767023042	12
3	535957	179.493767023042	12
3	542208	181.493767023042	12
3	548397	183.493767023042	12
3	554585	185.493767023042	17
3	560764	187.493767023042	25
3	566943	189.493767023042	23
3	573122	191.493767023042	25
3	579301	193.493767023042	24
3	585480	195.493767023042	24
3	591659	197.493767023042	24
3	597838	199.493767023042	24
3	604017	201.493767023042	24
3	610196	203.493767023042	24
3	616375	205.493767023042	30
2	118	5.523271023042	0.0577024
2	680	5.772895023042	0.04055776
2	1193	6.022895023042	0.033699904
2	1706	6.272895023042	0.0309567616
2	2219	6.522895023042	0.02985950464
2	2732	6.772895023042	0.029420601856
2	3245	7.009028697275	0.0292450407424
2	3757	7.199813293344	0.02917481629696
2	4270	7.397895023042	0.029146726518784
2	4783	7.601363613747	0.029135490607514
2	5296	7.774771613747	0.029342436892205
2	5808	7.964121986917	0.029213774756882
2	6321	8.147895023042	0.029162309902753
2	6833	8.333091155607	0.029141723961101
2	7346	8.522895023042	0.02913348958444
2	7858	8.704391842713	0.029130195833776
2	8371	8.885875565536	0.02912887833351
2	8883	9.061769399978	0.029128351333404
2	9395	9.241988215475	0.029128140533362
2	9908	9.407636215475	0.029666124933345
2	10421	9.573284215475	0.031000975097538
2	10934	9.746967136801	0.029877190039015
2	11446	9.912615136801	0.034588918405606
2	11958	10.078263136801	0.032650432199442
2	12471	10.243911136801	0.032879006341577
2	12983	10.409559136801	0.036422053336231
2	13495	10.575207136801	0.042173789478492
2	14007	10.740855136801	0.042204118352597
2	14520	10.906503136801	0.045052237262239
2	15032	11.072151136801	0.049533121009496
2	15544	11.237799136801	0.048570333844798
2	16057	11.403447136801	0.050529400528319
2	16570	11.569095136801	0.053499778604928
2	17082	11.734743136801	0.059324293107571
2	17595	11.900391136801	0.059852546923428
2	18107	12.066039136801	0.061063570973971
2	18619	12.231687136801	0.065151989497789
2	19132	12.397335136801	0.072312216936115
2	19644	12.562983136801	0.070454555029846
2	20156	12.728631136801	0.072596336955138
2	20669	12.894279136801	0.077791663478455
2	21181	13.059927136801	0.070812733646782
2	21693	13.225575136801	0.071054468790513
2	22206	13.391223136801	0.074339040330805
2	22719	13.556871136801	0.067598084387722
2	23231	13.722519136801	0.073925948302689
2	23744	13.888167136801	0.075202894730476
2	24256	14.053815136801	0.06611002614759
2	24768	14.219463136801	0.070454629905636
2	25281	14.385111136801	0.077900264042054
2	25793	14.550759136801	0.065355373872222
2	26305	14.716407136801	0.067628654395289
2	26818	14.882055136801	0.072955155748115
2	27330	15.047703136801	0.061543730554646
2	27842	15.213351136801	0.061843122673258
2	28355	15.378999136801	0.065167667938703
2	28868	15.544647136801	0.056595135430881
2	29380	15.710295136801	0.062790190410753
2	29893	15.875943136801	0.063994655645701
2	30405	16.041591136801	0.05429233051368
2	30917	16.207239136801	0.058534270381872
2	31430	16.372887136801	0.065849794387349
2	31942	16.538535136801	0.05320078601034
2	32454	16.704183136801	0.055408556397936
2	32967	16.869831136801	0.060639642581774
2	33479	17.035479136801	0.04928312528811
2	33991	17.201127136801	0.049538957859444
2	34503	17.366775136801	0.052788571887178
2	35017	17.532423136801	0.059196236937071
2	35529	17.698071136801	0.065263298495428
2	36041	17.863719136801	0.066404106741371
2	36554	18.029367136801	0.070666501790549
2	37066	18.195015136801	0.074015468971619
2	37578	18.360663136801	0.081185406177048
2	38091	18.526311136801	0.083291432914819
2	38603	18.691959136801	0.077231841421328
2	39115	18.857607136801	0.082338333623931
2	39628	19.023255136801	0.082313292991172
2	40140	19.188903136801	0.075006985451869
2	40652	19.354551136801	0.078144364984748
2	41166	19.520199136801	0.084407312046699
2	41678	19.685847136801	0.07401099307408
2	42190	19.851495136801	0.075066050158432
2	42703	20.017143136801	0.079206177250173
2	43215	20.182791136801	0.070096939155469
2	43727	20.348439136801	0.077109684128588
2	44240	20.514087136801	0.079117560059235
2	44752	20.679735136801	0.068227892279094
2	45264	20.845383136801	0.073202882721838
2	45777	21.011031136801	0.073102298023535
2	46289	21.176679136801	0.063988187464814
2	46801	21.342327136801	0.067009210164126
2	47315	21.507975136801	0.07312279755725
2	47827	21.673623136801	0.0621627872783
2	48339	21.839271136801	0.06312965781692
2	48852	22.004919136801	0.067144777518368
2	49364	22.170567136801	0.057937979262747
2	49876	22.336215136801	0.064742950573499
2	50389	22.501863136801	0.0665813048382
2	50901	22.667511136801	0.05587899019068
2	51413	22.833159136801	0.060707063042472
2	51926	22.998807136801	0.060509246739989
2	52438	23.164455136801	0.051616566951396
2	52950	23.330103136801	0.054453029790158
2	53464	23.495751136801	0.060331998363063
2	53976	23.661399136801	0.049712067600625
2	54488	23.827047136801	0.05056510224805
2	55000	23.992695136801	0.05442318883582
2	55513	24.158343136801	0.061446847740928
2	56025	24.323991136801	0.068088086582171
2	56537	24.489639136801	0.069814267745068
2	57050	24.655287136801	0.074666440850027
2	57562	24.820935136801	0.076167444595411
2	58074	24.986583136801	0.075883988060964
2	58587	25.152231136801	0.078703338893386
2	59099	25.317879136801	0.075948603812754
2	59611	25.483527136801	0.081680709558502
2	60125	25.649175136801	0.082302912353601
2	60637	25.814823136801	0.07555483319684
2	61149	25.980471136801	0.079287569725136
2	61662	26.146119136801	0.086152963261054
2	62174	26.311767136801	0.075261253559822
2	62686	26.477415136801	0.076893932950129
2	63199	26.643063136801	0.081615840692251
2	63711	26.808711136801	0.071612804532301
2	64223	26.974359136801	0.07919060300532
2	64736	27.140007136801	0.081768061399128
2	65248	27.305655136801	0.069840092815051
2	65760	27.471303136801	0.07537479182502
2	66274	27.636951136801	0.075836581144008
2	66786	27.802599136801	0.065633900713003
2	67298	27.968247136801	0.069211461738401
2	67811	28.133895136801	0.075882502162961
2	68323	28.299543136801	0.063818669120584
2	68835	28.465191136801	0.065340220984634
2	69348	28.630839136801	0.069910559157653
2	69860	28.796487136801	0.059596291918461
2	70372	28.962135136801	0.066954609185985
2	70885	29.127783136801	0.069346866798594
2	71397	29.293431136801	0.057537214974838
2	71909	29.459079136801	0.062918081463935
2	72423	29.624727136801	0.063273386681774
2	72935	29.790375136801	0.05327422292811
2	73447	29.956023136801	0.056736770665644
2	73960	30.121671136801	0.063260398462258
2	74472	30.287319136801	0.051435427640303
2	74984	30.452967136801	0.052884182922321
2	75496	30.618615136801	0.057348904061528
2	76009	30.784263136801	0.064986486599811
2	76521	30.949911136801	0.072201192170325
2	77033	31.115559136801	0.07451168100093
2	77546	31.281207136801	0.079952430693372
2	78058	31.446855136801	0.078833840532749
2	78571	31.612503136801	0.079121420039099
2	79084	31.778151136801	0.08251430782344
2	79596	31.943799136801	0.078024991384776
2	80108	32.109447136801	0.08440157561951
2	80621	32.275095136801	0.085695467070404
2	81133	32.440743136801	0.077463855083562
2	81645	32.606391136801	0.081803118829025
2	82158	32.772039136801	0.08928396820061
2	82670	32.937687136801	0.077065655535644
2	83182	33.103335136801	0.079282578908058
2	83695	33.268983136801	0.084593968050823
2	84207	33.434631136801	0.073356055475729
2	84720	33.600279136801	0.073568895391092
2	85233	33.765927136801	0.076848565064237
2	85745	33.931575136801	0.068424294281095
2	86257	34.097223136801	0.074650117776838
2	86770	34.262871136801	0.075851195795735
2	87282	34.428519136801	0.066191746573694
2	87794	34.594167136801	0.070403304168078
2	88307	34.759815136801	0.077724887291431
2	88819	34.925463136801	0.065107623171972
2	89331	35.091111136801	0.067229650860989
2	89844	35.256759136801	0.072410182799196
2	90356	35.422407136801	0.061148141375078
2	90869	35.588055136801	0.061285457762631
2	91382	35.753703136801	0.064451027917653
2	91894	35.919351136801	0.056130879422461
2	92406	36.084999136801	0.062156114565384
2	92919	36.250647136801	0.063193978987954
2	93431	36.416295136801	0.053794459850581
2	93943	36.581943136801	0.057863383011433
2	94456	36.747591136801	0.065007042114173
2	94968	36.913239136801	0.052686085101069
2	95480	37.078887136801	0.054718964346028
2	95993	37.244535136801	0.059775836535011
2	96505	37.410183136801	0.048760002869404
2	97018	37.575831136801	0.048839831031962
2	97530	37.741479136801	0.051913838259385
2	98043	37.907127136801	0.058146161748154
2	98555	38.072775136801	0.064036405852862
2	99067	38.238423136801	0.065000791621945
2	99580	38.404071136801	0.069086919545578
2	100092	38.569719136801	0.073035335270231
2	100604	38.735367136801	0.080028280150492
2	101117	38.901015136801	0.081957493685997
2	101629	39.066663136801	0.076520665729799
2	102141	39.232311136801	0.08144991674712
2	102654	39.397959136801	0.081247740295848
2	103167	39.563607136801	0.074403164373739
2	103679	39.729255136801	0.077363155140296
2	104192	39.894903136801	0.083448747954118
2	104704	40.060551136801	0.073449967437047
2	105216	40.226199136801	0.074327549317219
2	105729	40.391847136801	0.078290221451288
2	106241	40.557495136801	0.069552956835915
2	106753	40.723143136801	0.076388165376966
2	107266	40.888791136801	0.078218526928586
2	107778	41.054439136801	0.067690679026835
2	108290	41.220087136801	0.072488107005134
2	108803	41.385735136801	0.072209972820054
2	109316	41.551383136801	0.063453657383421
2	109828	41.717031136801	0.066212597312769
2	110341	41.882679136801	0.072047095085907
2	110853	42.048327136801	0.061554906289763
2	111365	42.213975136801	0.062294295438105
2	111878	42.379623136801	0.066071948306442
2	112390	42.545271136801	0.057331247577977
2	112902	42.710919136801	0.063933589487791
2	113415	42.876567136801	0.065558951372916
2	113927	43.042215136801	0.055292448804567
2	114439	43.207863136801	0.059928166474427
2	114952	43.373511136801	0.059531899836571
2	115465	43.539159136801	0.051048028190028
2	115977	43.704807136801	0.053698186802611
2	116490	43.870455136801	0.059388671231845
2	117002	44.036103136801	0.049157136748138
2	117514	44.201751136801	0.049827438241655
2	118026	44.367399136801	0.053501511120062
2	118539	44.533047136801	0.060340301440825
2	119051	44.698695136801	0.06680142096553
2	119563	44.864343136801	0.068346210787612
2	120076	45.029991136801	0.073016491872645
2	120588	45.195639136801	0.075329865004458
2	121100	45.361287136801	0.082889470706383
2	121614	45.526935136801	0.085389667128953
2	122126	45.692583136801	0.078445535106981
2	122638	45.858231136801	0.083935443780993
2	123151	46.023879136801	0.084296467521397
2	123663	46.189527136801	0.076174655263959
2	124175	46.355175136801	0.079691743089184
2	124688	46.520823136801	0.086335265945473
2	125200	46.686471136801	0.075156574633589
2	125712	46.852119136801	0.076589167937436
2	126225	47.017767136801	0.081107340071774
2	126737	47.183415136801	0.07123180428411
2	127249	47.349063136801	0.078620546794044
2	127763	47.514711136801	0.081004974481018
2	128275	47.680359136801	0.069357258047807
2	128787	47.846007136801	0.074707591814323
2	129300	48.011655136801	0.074982676601729
2	129812	48.177303136801	0.065114738896092
2	130324	48.342951136801	0.068510716938437
2	130837	48.508599136801	0.074999371598575
2	131349	48.674247136801	0.06328781689483
2	131861	48.839895136801	0.064629415530532
2	132374	49.005543136801	0.069019329054213
2	132886	49.171191136801	0.059062199877085
2	133398	49.336839136801	0.066241735881634
2	133912	49.502487136801	0.068454723042254
2	134424	49.668135136801	0.057002757472301
2	134936	49.833783136801	0.062205327433721
2	135449	49.999431136801	0.062382048360688
2	135961	50.165079136801	0.052740087599675
2	136473	50.330727136801	0.05602462562927
2	136986	50.496375136801	0.062370140897708
2	137498	50.662023136801	0.050901724614483
2	138010	50.827671136801	0.052172637960793
2	138522	50.993319136801	0.056459456735117
2	139035	51.158967136801	0.063919096534447
2	139547	51.324615136801	0.070956083270979
2	140059	51.490263136801	0.073088793244192
2	140573	51.655911136801	0.078351740434077
2	141085	51.821559136801	0.078015964429031
2	141597	51.987207136801	0.078125838530812
2	142110	52.152855136801	0.081341007058125
2	142622	52.318503136801	0.07737807107865
2	143134	52.484151136801	0.08357700099786
2	143647	52.649799136801	0.084693222139944
2	144159	52.815447136801	0.076885357111378
2	144671	52.981095136801	0.081046988812151
2	145184	53.146743136801	0.08835020088766
2	145696	53.312391136801	0.076514548610464
2	146208	53.478039136801	0.078553853026586
2	146722	53.643687136801	0.083687620132834
2	147234	53.809335136801	0.072815916308534
2	147746	53.974983136801	0.072851145052613
2	148259	54.140631136801	0.075953201748045
2	148771	54.306279136801	0.067888548954618
2	149283	54.471927136801	0.073936766768647
2	149796	54.637575136801	0.074960237135859
2	150308	54.803223136801	0.065657763109744
2	150820	54.968871136801	0.069691717351897
2	151333	55.134519136801	0.076835696445759
2	151845	55.300167136801	0.064574346833704
2	152357	55.465815136801	0.066518772539881
2	152871	55.631463136801	0.071521702097353
2	153383	55.797111136801	0.060615149094341
2	153895	55.962759136801	0.060574864312936
2	154408	56.128407136801	0.063562833066175
2	154920	56.294055136801	0.05559800148187
2	155432	56.459703136801	0.061445636038948
2	155945	56.625351136801	0.062305899633779
2	156457	56.790999136801	0.053261628108912
2	156969	56.956647136801	0.057152950924565
2	157482	57.122295136801	0.064119009595226
2	157994	57.287943136801	0.05215327209349
2	158506	57.453591136801	0.054008551134796
2	159020	57.619239136801	0.058887823068918
2	159532	57.784887136801	0.048227197482967
2	160044	57.950535136801	0.048129425525187
2	160556	58.116183136801	0.051025832602475
2	161069	58.281831136801	0.05708055592079
2	161581	58.447479136801	0.062793199966316
2	162093	58.613127136801	0.063579985646926
2	162606	58.778775136801	0.067488513470371
2	163118	58.944423136801	0.071259329160348
2	163630	59.110071136801	0.078074673994939
2	164143	59.275719136801	0.079826287470776
2	164655	59.441367136801	0.07549058324371
2	165168	59.607015136801	0.080242234234084
2	165681	59.772663136801	0.079862457748034
2	166193	59.938311136801	0.073671451354613
2	166705	60.103959136801	0.076358467264245
2	167218	60.269607136801	0.082155521350098
2	167730	60.435255136801	0.072755076795439
2	168242	60.600903136801	0.073398746448776
2	168755	60.766551136801	0.07711837810771
2	169267	60.932199136801	0.068906619498484
2	169779	61.097847136801	0.075535554755594
2	170292	61.263495136801	0.077149698109037
2	170804	61.429143136801	0.067085547499015
2	171317	61.594791136801	0.071688448056406
2	171830	61.760439136801	0.071209934506362
2	172342	61.926087136801	0.062876042057945
2	172854	62.091735136801	0.065447387939978
2	173367	62.257383136801	0.071092282415991
2	173879	62.423031136801	0.060995381221796
2	174391	62.588679136801	0.061551273643319
2	174904	62.754327136801	0.065144250263327
2	175416	62.919975136801	0.056782568360731
2	175928	63.085623136801	0.063204352646892
2	176441	63.251271136801	0.064647932641157
2	176953	63.416919136801	0.054750441311863
2	177466	63.582567136801	0.059206815834545
2	177979	63.748215136801	0.066741206933018
2	178491	63.913863136801	0.053754151028607
2	179003	64.079511136801	0.056169145149443
2	179516	64.245159136801	0.061610061008577
2	180028	64.410807136801	0.049868092658831
2	180540	64.576455136801	0.050326865492932
2	181052	64.742103136801	0.053780949978573
2	181565	64.907751136801	0.060394106300629
2	182077	65.073399136801	0.066660979423652
2	182589	65.239047136801	0.068003119298461
2	183102	65.404695136801	0.072467443869384
2	183615	65.570343136801	0.074932645803154
2	184127	65.735991136801	0.082301721656461
2	184640	65.901639136801	0.084607576407985
2	185152	66.067287136801	0.077955098818594
2	185664	66.232935136801	0.083259771941438
2	186177	66.398583136801	0.083433317742975
2	186689	66.564231136801	0.07565179535259
2	187201	66.729879136801	0.078986787837636
2	187714	66.895527136801	0.085447480698854
2	188226	67.061175136801	0.074623860534942
2	188738	67.226823136801	0.075876197909777
2	189251	67.392471136801	0.080213683211911
2	189764	67.558119136801	0.070696741540164
2	190276	67.723767136801	0.077906531161066
2	190789	67.889415136801	0.080111536612026
2	191301	68.055063136801	0.068822282900211
2	191813	68.220711136801	0.073994217802484
2	192326	68.386359136801	0.074090627511594
2	192838	68.552007136801	0.064580319260037
2	193350	68.717655136801	0.067798227003815
2	193863	68.883303136801	0.074108716580726
2	194375	69.048951136801	0.06275395488769
2	194887	69.214599136801	0.063917675670076
2	195400	69.380247136801	0.06812965568043
2	195913	69.545895136801	0.058528730527572
2	196425	69.711543136801	0.065530527059429
2	196938	69.877191136801	0.067565716988772
2	197450	70.042839136801	0.056469555050909
2	197962	70.208487136801	0.061494442773563
2	198475	70.374135136801	0.061493447486025
2	198987	70.539783136801	0.05220704724981
2	199499	70.705431136801	0.055313936905524
2	200012	70.871079136801	0.06148179166021
2	200524	71.036727136801	0.050368784919484
2	201036	71.202375136801	0.051462069700394
2	201548	71.368023136801	0.055571252774957
2	202062	71.533671136801	0.062853252107983
2	202574	71.699319136801	0.069712624813793
2	203086	71.864967136801	0.071667713669517
2	203599	72.030615136801	0.076753036950407
2	204111	72.196263136801	0.077198883035563
2	204623	72.361911136801	0.077131144692425
2	205136	72.527559136801	0.08016869913977
2	205648	72.693207136801	0.076731547911308
2	206160	72.858855136801	0.082752871417923
2	206673	73.024503136801	0.083691484258969
2	207185	73.190151136801	0.076307061958988
2	207697	73.355799136801	0.080291089876395
2	208211	73.521447136801	0.087416697548358
2	208723	73.687095136801	0.075963547274743
2	209235	73.852743136801	0.077825249452697
2	209748	74.018391136801	0.082781413956679
2	210260	74.184039136801	0.072275833838072
2	210772	74.349687136801	0.072133461263029
2	211285	74.515335136801	0.075057916426411
2	211797	74.680983136801	0.067352834825965
2	212309	74.846631136801	0.073150226873386
2	212822	75.012279136801	0.073897507358154
2	213334	75.177927136801	0.065055071198662
2	213846	75.343575136801	0.068868247003065
2	214360	75.509223136801	0.075782730029826
2	214872	75.674871136801	0.06397556026733
2	215384	75.840519136801	0.065716851900932
2	215897	76.006167136801	0.070511526959773
2	216409	76.171815136801	0.060033479039309
2	216921	76.337463136801	0.059800548990924
2	217434	76.503111136801	0.062592867505569
2	217946	76.668759136801	0.055032415257628
2	218458	76.834407136801	0.060694909682051
2	218971	77.000055136801	0.06136691342542
2	219483	77.165703136801	0.052708433625568
2	219995	77.331351136801	0.056417714541827
2	220509	77.496999136801	0.063200615039131
2	221021	77.662647136801	0.051608314271052
2	221533	77.828295136801	0.053283368019221
2	222046	77.993943136801	0.057981758400688
2	222558	78.159591136801	0.047687171615675
2	223070	78.325239136801	0.05516731574207
2	223582	78.490887136801	0.057777932842628
2	224095	78.656535136801	0.063532492921251
2	224607	78.822183136801	0.0690250819709
2	225119	78.987831136801	0.06957039179096
2	225632	79.153479136801	0.073229024844584
2	226144	79.319127136801	0.074507678193234
2	226656	79.484775136801	0.081112471359093
2	227170	79.650423136801	0.082643822691037
2	227682	79.816071136801	0.076439997331815
2	228194	79.981719136801	0.080994595425726
2	228707	80.147367136801	0.08869381728329
2	229219	80.313015136801	0.077026395168716
2	229731	80.478663136801	0.079451083800886
2	230244	80.644311136801	0.084972020421355
2	230756	80.809959136801	0.073704076423942
2	231268	80.975607136801	0.074120178979977
2	231781	81.141255136801	0.077604156405191
2	232293	81.306903136801	0.068923330817476
2	232805	81.472551136801	0.075349241457391
2	233319	81.638199136801	0.076751545944156
2	233831	81.803847136801	0.066748686633062
2	234343	81.969495136801	0.071158983625225
2	234856	82.135143136801	0.07867969794769
2	235368	82.300791136801	0.065686347434476
2	235880	82.466439136801	0.06800632238859
2	236393	82.632087136801	0.073385031740436
2	236905	82.797735136801	0.061734880951574
2	237417	82.963383136801	0.06206967346623
2	237930	83.129031136801	0.065432854819692
2	238442	83.294679136801	0.056720410183277
2	238954	83.460327136801	0.062942784215911
2	239468	83.625975136801	0.064177927752564
2	239980	83.791623136801	0.054384839356426
2	240492	83.957271136801	0.05865076217097
2	241005	84.122919136801	0.065991471104388
2	241517	84.288567136801	0.053276656697155
2	242029	84.454215136801	0.055506453948262
2	242542	84.619863136801	0.060760273642905
2	243054	84.785511136801	0.049350577712562
2	243566	84.951159136801	0.049627275385625
2	244078	85.116807136801	0.05289816944525
2	244591	85.282455136801	0.0593273913209
2	245103	85.448103136801	0.06541446951716
2	245616	85.613751136801	0.066575706584264
2	246129	85.779399136801	0.070858692574506
2	246641	85.945047136801	0.074111545285202
2	247153	86.110695136801	0.081301316638681
2	247666	86.276343136801	0.083427364450872
2	248178	86.441991136801	0.077305414035749
2	248690	86.607639136801	0.0824314806849
2	249203	86.773287136801	0.08242612445556
2	249715	86.938935136801	0.075071318037624
2	250227	87.104583136801	0.07822811800705
2	250740	87.270231136801	0.08451052152742
2	251252	87.435879136801	0.074071476866368
2	251765	87.601527136801	0.075145864183547
2	252278	87.767175136801	0.079305342636619
2	252790	87.932823136801	0.070155805310048
2	253302	88.098471136801	0.077187816620619
2	253815	88.264119136801	0.079214981902048
2	254327	88.429767136801	0.068286061016219
2	254839	88.595415136801	0.073280290629888
2	255352	88.761063136801	0.073198958645755
2	255864	88.926711136801	0.064046051713702
2	256376	89.092359136801	0.067086297472881
2	256889	89.258007136801	0.073219112573552
2	257401	89.423655136801	0.062220513284821
2	257914	89.589303136801	0.063206597447328
2	258427	89.754951136801	0.067240933501531
2	258939	89.920599136801	0.057995641656013
2	259451	90.086247136801	0.064819819805405
2	259964	90.251895136801	0.066677383740362
2	260476	90.417543136801	0.055936621751545
2	260988	90.583191136801	0.060783898635418
2	261501	90.748839136801	0.060605288031167
2	262013	90.914487136801	0.051674183467867
2	262525	91.080135136801	0.054529848685947
2	263038	91.245783136801	0.060428020233779
2	263550	91.411431136801	0.049769676348911
2	264063	91.577079136801	0.050641912399565
2	264575	91.742727136801	0.054519200740226
2	265088	91.908375136801	0.06156206163229
2	265600	92.074023136801	0.068222501162116
2	266112	92.239671136801	0.069967883361246
2	266625	92.405319136801	0.074839257639099
2	267137	92.570967136801	0.076255771311039
2	267649	92.736615136801	0.075991515387016
2	268162	92.902263136801	0.078830066910006
2	268674	93.067911136801	0.076018495019403
2	269186	93.233559136801	0.081769801080361
2	269699	93.399207136801	0.082411204283544
2	270212	93.564855136801	0.075617349968818
2	270724	93.730503136801	0.079369286683127
2	271237	93.896151136801	0.086253880435051
2	271749	94.061799136801	0.07532082042942
2	272261	94.227447136801	0.076972699929168
2	272774	94.393095136801	0.081713807799067
2	273286	94.558743136801	0.071671191375027
2	273798	94.724391136801	0.079268189904011
2	274311	94.890039136801	0.081864848373004
2	274823	95.055687136801	0.069898007604602
2	275335	95.221335136801	0.075451906647241
2	275848	95.386983136801	0.075932896011096
2	276361	95.552631136801	0.065691626659839
2	276873	95.718279136801	0.069288387704535
2	277386	95.883927136801	0.075978628153014
2	277898	96.049575136801	0.063876319516606
2	278410	96.215223136801	0.065417071392042
2	278923	96.380871136801	0.070006609579217
2	279435	96.546519136801	0.059653912087087
2	279947	96.712167136801	0.067031429360835
2	280460	96.877815136801	0.069442886981334
2	280972	97.043463136801	0.057594823047934
2	281484	97.209111136801	0.062994889540573
2	281997	97.374759136801	0.063369394762829
2	282510	97.540407136801	0.053331826160532