file 298388 1448294513                                          
version 2
run General-0-20150115-11:44:23-3469
attr configname General
attr datetime 20150115-11:44:23
attr experiment General
attr inifile /home/achraf/Developpement/omnetpp-4.1/projects/INET-OverSim-20101019/src/httptools/cache/webcache/test/extfilter/extfilter.ini
attr iterationvars ""
attr iterationvars2 $repetition=0
attr measurement ""
attr network CacheExtensionFilterTest
attr processid 3469
attr repetition 0
attr replication #0
attr resultdir results
attr runnumber 0
attr seedset 0
vector 94  CacheExtensionFilterTest.clients[0].tcp  11_tcpRcvQueueBytes  ETV
94	32993 360 7 490 43592.754601490429 43592.867267490429 13 0 0 0 0
vector 82  CacheExtensionFilterTest.clients[0].tcp  "11_advertised window"  ETV
82	31378 360 7 490 43592.754601490429 43592.867267490429 10 20328 2308280018 20774516638 4.7953299659818e+19
vector 81  CacheExtensionFilterTest.clients[0].tcp  "11_receive window"  ETV
81	31094 284 7 490 43592.754601490429 43592.867267490429 9 20328 20328 182952 3719048256
vector 84  CacheExtensionFilterTest.clients[0].tcp  "11_sent ack"  ETV
84	31774 320 7 490 43592.754601490429 43592.867267490429 9 0 2308259690 18466059095 4.2624417312544e+19
vector 61  CacheExtensionFilterTest.cache.tcp  "10_rcvd seq"  ETV
61	933 36 23 23 43592.755417690429 43592.755417690429 1 2308254058 2308254058 2308254058 5.3280367962735e+18
vector 130  CacheExtensionFilterTest.cache.tcp  "12_advertised window"  ETV
130	12959 339 23 400 43592.755417690429 43592.866075290429 9 2308274387 2308274498 20774470255 4.7953179375098e+19
vector 128  CacheExtensionFilterTest.cache.tcp  "12_send window"  ETV
128	12501 196 23 369 43592.755417690429 43592.865259290429 6 20328 20328 121968 2479365504
vector 142  CacheExtensionFilterTest.cache.tcp  12_tcpRcvQueueBytes  ETV
142	14803 258 23 400 43592.755417690429 43592.866075290429 9 0 0 0 0
vector 129  CacheExtensionFilterTest.cache.tcp  "12_receive window"  ETV
129	12697 262 23 400 43592.755417690429 43592.866075290429 8 20328 20328 162624 3305820672
vector 132  CacheExtensionFilterTest.cache.tcp  "12_sent ack"  ETV
132	13450 302 23 400 43592.755417690429 43592.866075290429 8 2308254059 2308254170 18466033244 4.2624297971064e+19
vector 85  CacheExtensionFilterTest.clients[0].tcp  "11_rcvd seq"  ETV
85	32094 295 39 490 43592.756233890429 43592.867267490429 8 2308254262 2308259689 18466053667 4.2624392254106e+19
vector 86  CacheExtensionFilterTest.clients[0].tcp  "11_rcvd ack"  ETV
86	32389 295 39 490 43592.756233890429 43592.867267490429 8 2308254059 2308254170 18466033244 4.2624297971064e+19
vector 80  CacheExtensionFilterTest.clients[0].tcp  "11_send window"  ETV
80	30999 95 39 478 43592.756233890429 43592.866891490429 3 20328 20328 60984 1239682752
vector 83  CacheExtensionFilterTest.clients[0].tcp  "11_sent seq"  ETV
83	31738 36 43 43 43592.756233890429 43592.756233890429 1 2308254059 2308254059 2308254059 5.32803680089e+18
vector 87  CacheExtensionFilterTest.clients[0].tcp  "11_unacked bytes"  ETV
87	32684 113 43 478 43592.756233890429 43592.866891490429 4 0 110 111 12101
vector 0  CacheExtensionFilterTest.clients[0].ppp[0].queue  queuelength:vector  ETV
attr source qlen
attr title "queue length, vector"
0	222451 4554 50 8956 43592.756233890429 47155.962176935728 166 0 7 451 1995
vector 133  CacheExtensionFilterTest.cache.tcp  "12_rcvd seq"  ETV
133	13752 302 62 803 43592.756986090429 43592.884179690429 8 2308254059 2308254170 18466033133 4.2624297458632e+19
vector 134  CacheExtensionFilterTest.cache.tcp  "12_rcvd ack"  ETV
134	14054 302 62 803 43592.756986090429 43592.884179690429 8 2308254263 2308259690 18466059095 4.2624417312544e+19
vector 135  CacheExtensionFilterTest.cache.tcp  "12_unacked bytes"  ETV
135	14356 246 62 400 43592.756986090429 43592.866075290429 8 0 3974 11923 33839581
vector 73  CacheExtensionFilterTest.cache.tcp  cwnd  ETV
73	12045 154 62 369 43592.756986090429 43592.865259290429 5 2904 8712 29040 189747360
vector 136  CacheExtensionFilterTest.cache.tcp  "12_rcvd dupAcks"  ETV
136	14602 201 62 397 43592.756986090429 43592.866075290429 7 0 0 0 0
vector 159  CacheExtensionFilterTest.cache.tcp  13_tcpRcvQueueBytes  ETV
159	256282 612 77 1131 43592.759122090429 43592.902812090429 21 0 0 0 0
vector 147  CacheExtensionFilterTest.cache.tcp  "13_advertised window"  ETV
147	253737 528 77 1131 43592.759122090429 43592.902812090429 14 20328 2308284263 30007661000 6.9266038362067e+19
vector 146  CacheExtensionFilterTest.cache.tcp  "13_receive window"  ETV
146	253307 430 77 1131 43592.759122090429 43592.902812090429 13 20328 20328 264264 5371958592
vector 149  CacheExtensionFilterTest.cache.tcp  "13_sent ack"  ETV
149	254379 486 77 1131 43592.759122090429 43592.902812090429 13 0 2308263935 27699121117 6.3936775887957e+19
vector 37  CacheExtensionFilterTest.server.tcp  "3_rcvd seq"  ETV
37	2674 36 97 97 43592.759530190429 43592.759530190429 1 2308255188 2308255188 2308255188 5.3280420129289e+18
vector 195  CacheExtensionFilterTest.server.tcp  "14_advertised window"  ETV
195	258673 492 97 961 43592.759530190429 43592.888771990429 13 2308275517 2308276003 30007584626 6.9265779622043e+19
vector 193  CacheExtensionFilterTest.server.tcp  "14_send window"  ETV
193	257947 331 97 1149 43592.759530190429 43592.903188190429 10 20328 20328 203280 4132275840
vector 207  CacheExtensionFilterTest.server.tcp  14_tcpRcvQueueBytes  ETV
207	261594 434 97 961 43592.759530190429 43592.888771990429 15 0 0 0 0
vector 194  CacheExtensionFilterTest.server.tcp  "14_receive window"  ETV
194	258278 395 97 961 43592.759530190429 43592.888771990429 12 20328 20328 243936 4958731008
vector 197  CacheExtensionFilterTest.server.tcp  "14_sent ack"  ETV
197	259469 455 97 961 43592.759530190429 43592.888771990429 12 2308255189 2308255675 27699065173 6.3936517621509e+19
vector 99  CacheExtensionFilterTest.clients[0].tcp  "measured RTT"  ETV
99	30849 36 107 107 43592.759874290429 43592.759874290429 1 0.0036404 0.0036404 0.0036404 1.325251216e-05
vector 100  CacheExtensionFilterTest.clients[0].tcp  "smoothed RTT"  ETV
100	30885 38 107 107 43592.759874290429 43592.759874290429 1 0.00045505 0.00045505 0.00045505 2.070705025e-07
vector 101  CacheExtensionFilterTest.clients[0].tcp  RTTVAR  ETV
101	30923 38 107 107 43592.759874290429 43592.759874290429 1 0.65670505 0.65670505 0.65670505 0.4312615226955
vector 102  CacheExtensionFilterTest.clients[0].tcp  RTO  ETV
102	30961 38 107 107 43592.759874290429 43592.759874290429 1 2.62727525 2.62727525 2.62727525 6.9025752392626
vector 97  CacheExtensionFilterTest.clients[0].tcp  cwnd  ETV
97	30787 62 107 478 43592.759874290429 43592.866891490429 2 2904 4356 7260 27407952
vector 88  CacheExtensionFilterTest.clients[0].tcp  "11_rcvd dupAcks"  ETV
88	32797 196 107 490 43592.759874290429 43592.867267490429 7 0 0 0 0
vector 150  CacheExtensionFilterTest.cache.tcp  "13_rcvd seq"  ETV
150	254865 458 112 1131 43592.759938290429 43592.902812090429 12 2308255290 2308263773 27699112472 6.3936735978149e+19
vector 151  CacheExtensionFilterTest.cache.tcp  "13_rcvd ack"  ETV
151	255323 458 112 1131 43592.759938290429 43592.902812090429 12 2308255189 2308255675 27699065173 6.3936517621509e+19
vector 145  CacheExtensionFilterTest.cache.tcp  "13_send window"  ETV
145	253175 132 112 986 43592.759938290429 43592.889148090429 4 20328 20328 81312 1652910336
vector 148  CacheExtensionFilterTest.cache.tcp  "13_sent seq"  ETV
148	254265 114 116 850 43592.759938290429 43592.886523890429 3 2308255189 2308255488 6924765976 1.5984127940789e+19
vector 152  CacheExtensionFilterTest.cache.tcp  "13_unacked bytes"  ETV
152	255781 180 116 986 43592.759938290429 43592.889148090429 6 0 189 486 82790
vector 14  CacheExtensionFilterTest.cache.ppp[1].queue  queuelength:vector  ETV
attr source qlen
attr title "queue length, vector"
14	251523 680 123 1088 43592.759938290429 43592.900219890429 24 0 10 102 672
vector 198  CacheExtensionFilterTest.server.tcp  "14_rcvd seq"  ETV
198	259924 458 129 1149 43592.760314390429 43592.903188190429 12 2308255189 2308255675 27699064687 6.3936515377885e+19
vector 199  CacheExtensionFilterTest.server.tcp  "14_rcvd ack"  ETV
199	260382 458 129 1149 43592.760314390429 43592.903188190429 12 2308255291 2308263935 27699121117 6.3936775887957e+19
vector 200  CacheExtensionFilterTest.server.tcp  "14_unacked bytes"  ETV
200	260840 404 129 1149 43592.760314390429 43592.903188190429 13 0 3973 15453 39055125
vector 49  CacheExtensionFilterTest.server.tcp  cwnd  ETV
49	252261 285 129 1149 43592.760314390429 43592.903188190429 9 2904 14520 78408 809588736
vector 201  CacheExtensionFilterTest.server.tcp  "14_rcvd dupAcks"  ETV
201	261244 350 129 1149 43592.760314390429 43592.903188190429 12 0 0 0 0
vector 209  CacheExtensionFilterTest.server.tcp  14_goodput  ETV
209	262028 93 135 958 43592.761570390429 43592.888771990429 3 110 189 486 82790
vector 196  CacheExtensionFilterTest.server.tcp  "14_sent seq"  ETV
196	259165 304 138 961 43592.761570390429 43592.888771990429 8 2308255291 2308263773 18466078854 4.2624508530329e+19
vector 4  CacheExtensionFilterTest.server.ppp[0].queue  queuelength:vector  ETV
attr source qlen
attr title "queue length, vector"
4	228949 1208 149 1299 43592.761570390429 43592.928763990429 44 0 10 150 838
vector 164  CacheExtensionFilterTest.cache.tcp  "measured RTT"  ETV
164	257246 111 156 986 43592.761946490429 43592.889148090429 3 0.0020082 0.0026242 0.0068966 1.604589452e-05
vector 165  CacheExtensionFilterTest.cache.tcp  "smoothed RTT"  ETV
165	257357 122 156 986 43592.761946490429 43592.889148090429 3 0.000251025 0.00076786289 0.001521559765 9.0530598238017e-07
vector 166  CacheExtensionFilterTest.cache.tcp  RTTVAR  ETV
166	257479 122 156 986 43592.761946490429 43592.889148090429 3 0.503118979297 0.656501025 1.734310048047 1.0143909495403
vector 167  CacheExtensionFilterTest.cache.tcp  RTO  ETV
167	257601 123 156 986 43592.761946490429 43592.889148090429 3 2.013243780078 2.626255125 6.938761751953 16.236976138631
vector 162  CacheExtensionFilterTest.cache.tcp  cwnd  ETV
162	257150 96 156 986 43592.761946490429 43592.889148090429 3 2904 5808 13068 61140816
vector 153  CacheExtensionFilterTest.cache.tcp  "13_rcvd dupAcks"  ETV
153	255961 321 156 1131 43592.761946490429 43592.902812090429 11 0 0 0 0
vector 161  CacheExtensionFilterTest.cache.tcp  13_goodput  ETV
161	256894 256 162 1131 43592.773938490429 43592.902812090429 8 153 1452 8644 11733934
vector 51  CacheExtensionFilterTest.server.tcp  "measured RTT"  ETV
51	252546 144 172 1125 43592.774314590429 43592.901516190429 4 0.0127442 0.023984 0.0622166 0.00106247615692
vector 52  CacheExtensionFilterTest.server.tcp  "smoothed RTT"  ETV
52	252690 162 172 1125 43592.774314590429 43592.901516190429 4 0.001593025 0.006349467919 0.017770324559 9.1691616435006e-05
vector 53  CacheExtensionFilterTest.server.tcp  RTTVAR  ETV
53	252852 161 172 1125 43592.774314590429 43592.901516190429 4 0.444673385352 0.657843025 2.188082045899 1.2222570483884
vector 54  CacheExtensionFilterTest.server.tcp  RTO  ETV
54	253013 162 172 1125 43592.774314590429 43592.901516190429 4 1.785043009327 2.632965125 8.770098508155 19.629553107559
vector 210  CacheExtensionFilterTest.cache.tcpApp[0]  cache.requests.upstream.txdelay:dvector  ETV
attr pattern cache*.requests.upstream.txdelay
attr source txdelay
attr title cache.requests.upstream.txdelay:dvector
210	262121 302 218 1528 43592.806850490429 43595.904532090429 8 0.0158562 3.0207284 3.282683 9.1354813620108
vector 131  CacheExtensionFilterTest.cache.tcp  "12_sent seq"  ETV
131	13298 152 220 272 43592.806850490429 43592.831586890429 4 2308254263 2308258619 9233025764 2.1312191189682e+19
vector 12  CacheExtensionFilterTest.cache.ppp[0].queue  queuelength:vector  ETV
attr source qlen
attr title "queue length, vector"
12	242280 9243 232 9166 43592.806850490429 47156.014017535729 326 0 7 653 2347
vector 8  CacheExtensionFilterTest.router.ppp[1].queue  queuelength:vector  ETV
attr source qlen
attr title "queue length, vector"
8	234258 5502 250 9201 43592.830834590429 47156.026009635729 200 0 7 354 1448
vector 96  CacheExtensionFilterTest.clients[0].tcp  11_goodput  ETV
96	33353 124 256 341 43592.830834690429 43592.864507090429 4 1070 1452 5426 7469812
vector 75  CacheExtensionFilterTest.cache.tcp  "measured RTT"  ETV
75	12199 72 272 336 43592.831586890429 43592.856323290429 2 0.0247364 0.0247364 0.0494728 0.00122377896992
vector 76  CacheExtensionFilterTest.cache.tcp  "smoothed RTT"  ETV
76	12271 77 272 336 43592.831586890429 43592.856323290429 2 0.00309205 0.00579759375 0.00888964375 4.3172866492539e-05
vector 77  CacheExtensionFilterTest.cache.tcp  RTTVAR  ETV
77	12348 76 272 336 43592.831586890429 43592.856323290429 2 0.5796298375 0.65934205 1.2389718875 0.77070268741848
vector 78  CacheExtensionFilterTest.cache.tcp  RTO  ETV
78	12424 77 272 336 43592.831586890429 43592.856323290429 2 2.32431694375 2.64046025 4.96477719375 12.374479586833
vector 225  CacheExtensionFilterTest.clients[0].tcp  15_tcpRcvQueueBytes  ETV
225	39184 861 344 1623 43592.864507090429 43595.913668690429 29 0 0 0 0
vector 213  CacheExtensionFilterTest.clients[0].tcp  "15_advertised window"  ETV
213	34857 804 344 1623 43592.864507090429 43595.913668690429 21 20328 2308308978 46166117080 1.0656542446633e+20
vector 212  CacheExtensionFilterTest.clients[0].tcp  "15_receive window"  ETV
212	34186 671 344 1623 43592.864507090429 43595.913668690429 20 20328 20328 406560 8264551680
vector 215  CacheExtensionFilterTest.clients[0].tcp  "15_sent ack"  ETV
215	35927 762 344 1623 43592.864507090429 43595.913668690429 20 0 2308288650 43857408359 1.0123538252479e+20
vector 6  CacheExtensionFilterTest.router.ppp[0].queue  queuelength:vector  ETV
attr source qlen
attr title "queue length, vector"
6	230213 4045 381 8968 43592.865667190429 47155.964577035728 148 0 2 84 94
vector 109  CacheExtensionFilterTest.cache.tcp  "10_rcvd seq"  ETV
109	6735 38 387 387 43592.865699290429 43592.865699290429 1 2308281534 2308281534 2308281534 5.3281636402054e+18
vector 261  CacheExtensionFilterTest.cache.tcp  "16_advertised window"  ETV
261	25418 769 387 1592 43592.865699290429 43595.912540490429 20 2308301863 2308303311 46166059119 1.0656525072896e+20
vector 259  CacheExtensionFilterTest.cache.tcp  "16_send window"  ETV
259	24410 372 387 1584 43592.865699290429 43595.912164490429 11 20328 20328 223608 4545503424
vector 273  CacheExtensionFilterTest.cache.tcp  16_tcpRcvQueueBytes  ETV
273	29808 763 387 1592 43592.865699290429 43595.912540490429 26 0 0 0 0
vector 260  CacheExtensionFilterTest.cache.tcp  "16_receive window"  ETV
260	24782 636 387 1592 43592.865699290429 43595.912540490429 19 20328 20328 386232 7851324096
vector 263  CacheExtensionFilterTest.cache.tcp  "16_sent ack"  ETV
263	26536 731 387 1592 43592.865699290429 43595.912540490429 19 2308281535 2308282983 43857371024 1.012352101651e+20
vector 216  CacheExtensionFilterTest.clients[0].tcp  "15_rcvd seq"  ETV
216	36689 733 426 1623 43592.866515490429 43595.913668690429 19 2308281832 2308288649 43857401541 1.0123535104901e+20
vector 217  CacheExtensionFilterTest.clients[0].tcp  "15_rcvd ack"  ETV
217	37422 733 426 1623 43592.866515490429 43595.913668690429 19 2308281535 2308282983 43857371024 1.012352101651e+20
vector 211  CacheExtensionFilterTest.clients[0].tcp  "15_send window"  ETV
211	33888 298 426 1618 43592.866515490429 43595.913292690429 9 20328 20328 182952 3719048256
vector 214  CacheExtensionFilterTest.clients[0].tcp  "15_sent seq"  ETV
214	35661 266 430 436 43592.866515490429 43592.866515490429 7 2308281535 2308282919 16157975238 3.7297166255976e+19
vector 218  CacheExtensionFilterTest.clients[0].tcp  "15_unacked bytes"  ETV
218	38155 496 430 1618 43592.866515490429 43595.913292690429 16 0 1447 10130 10452200
vector 264  CacheExtensionFilterTest.cache.tcp  "16_rcvd seq"  ETV
264	27267 733 501 1641 43592.867267690429 43595.914420890429 19 2308281535 2308282983 43857369576 1.0123520348031e+20
vector 265  CacheExtensionFilterTest.cache.tcp  "16_rcvd ack"  ETV
265	28000 733 501 1641 43592.867267690429 43595.914420890429 19 2308281833 2308288650 43857408359 1.0123538252479e+20
vector 266  CacheExtensionFilterTest.cache.tcp  "16_unacked bytes"  ETV
266	28733 543 501 1592 43592.867267690429 43595.912540490429 17 0 4827 27621 87529583
vector 121  CacheExtensionFilterTest.cache.tcp  cwnd  ETV
121	23591 334 501 1584 43592.867267690429 43595.912164490429 10 2904 15972 94380 1064693520
vector 267  CacheExtensionFilterTest.cache.tcp  "16_rcvd dupAcks"  ETV
267	29276 532 501 1589 43592.867267690429 43595.912540490429 18 0 0 0 0
vector 275  CacheExtensionFilterTest.cache.tcp  16_goodput  ETV
275	30571 216 521 786 43592.870667690429 43592.883803690429 7 63 291 1447 333975
vector 230  CacheExtensionFilterTest.clients[0].tcp  "measured RTT"  ETV
230	33737 37 544 544 43592.871419890429 43592.871419890429 1 0.0049044 0.0049044 0.0049044 2.405313936e-05
vector 231  CacheExtensionFilterTest.clients[0].tcp  "smoothed RTT"  ETV
231	33774 38 544 544 43592.871419890429 43592.871419890429 1 0.00061305 0.00061305 0.00061305 3.758303025e-07
vector 232  CacheExtensionFilterTest.clients[0].tcp  RTTVAR  ETV
232	33812 38 544 544 43592.871419890429 43592.871419890429 1 0.65686305 0.65686305 0.65686305 0.4314690664553
vector 233  CacheExtensionFilterTest.clients[0].tcp  RTO  ETV
233	33850 38 544 544 43592.871419890429 43592.871419890429 1 2.62806525 2.62806525 2.62806525 6.9067269582576
vector 228  CacheExtensionFilterTest.clients[0].tcp  cwnd  ETV
228	33477 260 544 1618 43592.871419890429 43595.913292690429 8 2904 13068 63888 598758336
vector 219  CacheExtensionFilterTest.clients[0].tcp  "15_rcvd dupAcks"  ETV
219	38651 533 544 1623 43592.871419890429 43595.913668690429 18 0 0 0 0
vector 290  CacheExtensionFilterTest.cache.tcp  17_tcpRcvQueueBytes  ETV
290	263344 147 607 1155 43592.874491690429 43592.908508090429 5 0 0 0 0
vector 278  CacheExtensionFilterTest.cache.tcp  "17_advertised window"  ETV
278	262623 186 607 1155 43592.874491690429 43592.908508090429 5 20328 2308305079 9233238790 2.1313080792168e+19
vector 277  CacheExtensionFilterTest.cache.tcp  "17_receive window"  ETV
277	262490 133 607 1155 43592.874491690429 43592.908508090429 4 20328 20328 81312 1652910336
vector 280  CacheExtensionFilterTest.cache.tcp  "17_sent ack"  ETV
280	262847 144 607 1155 43592.874491690429 43592.908508090429 4 0 2308284751 6924853017 1.5984529769018e+19
vector 174  CacheExtensionFilterTest.server.tcp  "3_rcvd seq"  ETV
174	8763 38 627 627 43592.874899790429 43592.874899790429 1 2308284030 2308284030 2308284030 5.328175163153e+18
vector 326  CacheExtensionFilterTest.server.tcp  "18_advertised window"  ETV
326	264137 152 627 995 43592.874899790429 43592.891067990429 4 2308304359 2308304552 9233217822 2.1313077837125e+19
vector 324  CacheExtensionFilterTest.server.tcp  "18_send window"  ETV
324	263938 100 627 1173 43592.874899790429 43592.908884190429 3 20328 20328 60984 1239682752
vector 338  CacheExtensionFilterTest.server.tcp  18_tcpRcvQueueBytes  ETV
338	264849 116 627 995 43592.874899790429 43592.891067990429 4 0 0 0 0
vector 325  CacheExtensionFilterTest.server.tcp  "18_receive window"  ETV
325	264038 99 627 995 43592.874899790429 43592.891067990429 3 20328 20328 60984 1239682752
vector 328  CacheExtensionFilterTest.server.tcp  "18_sent ack"  ETV
328	264327 114 627 995 43592.874899790429 43592.891067990429 3 2308284031 2308284224 6924852479 1.5984527285304e+19
vector 355  CacheExtensionFilterTest.cache.tcp  19_tcpRcvQueueBytes  ETV
355	265917 147 658 1232 43592.877979690429 43592.915132090429 5 0 0 0 0
vector 343  CacheExtensionFilterTest.cache.tcp  "19_advertised window"  ETV
343	265196 186 658 1232 43592.877979690429 43592.915132090429 5 20328 2308306067 9233242394 2.1313097430431e+19
vector 342  CacheExtensionFilterTest.cache.tcp  "19_receive window"  ETV
342	265063 133 658 1232 43592.877979690429 43592.915132090429 4 20328 20328 81312 1652910336
vector 345  CacheExtensionFilterTest.cache.tcp  "19_sent ack"  ETV
345	265420 144 658 1232 43592.877979690429 43592.915132090429 4 0 2308285739 6924855749 1.5984542381486e+19
vector 305  CacheExtensionFilterTest.server.tcp  "3_rcvd seq"  ETV
305	9617 38 678 678 43592.878387790429 43592.878387790429 1 2308284902 2308284902 2308284902 5.3281791888011e+18
vector 391  CacheExtensionFilterTest.server.tcp  "20_advertised window"  ETV
391	266746 154 678 1018 43592.878387790429 43592.894147990429 4 2308305231 2308305522 9233221506 2.1313094844715e+19
vector 389  CacheExtensionFilterTest.server.tcp  "20_send window"  ETV
389	266544 101 678 1254 43592.878387790429 43592.915508190429 3 20328 20328 60984 1239682752
vector 403  CacheExtensionFilterTest.server.tcp  20_tcpRcvQueueBytes  ETV
403	267471 119 678 1018 43592.878387790429 43592.894147990429 4 0 0 0 0
vector 390  CacheExtensionFilterTest.server.tcp  "20_receive window"  ETV
390	266645 101 678 1018 43592.878387790429 43592.894147990429 3 20328 20328 60984 1239682752
vector 393  CacheExtensionFilterTest.server.tcp  "20_sent ack"  ETV
393	266939 116 678 1018 43592.878387790429 43592.894147990429 3 2308284903 2308285194 6924855291 1.5984540267097e+19
vector 420  CacheExtensionFilterTest.cache.tcp  21_tcpRcvQueueBytes  ETV
420	268763 207 702 1283 43592.880395690429 43592.928388090429 7 0 0 0 0
vector 408  CacheExtensionFilterTest.cache.tcp  "21_advertised window"  ETV
408	267856 225 702 1283 43592.880395690429 43592.928388090429 6 20328 2308307453 11541552981 2.6641395196469e+19
vector 407  CacheExtensionFilterTest.cache.tcp  "21_receive window"  ETV
407	267689 167 702 1283 43592.880395690429 43592.928388090429 5 20328 20328 101640 2066137920
vector 410  CacheExtensionFilterTest.cache.tcp  "21_sent ack"  ETV
410	268119 183 702 1283 43592.880395690429 43592.928388090429 5 0 2308287125 9233145404 2.1312743512854e+19
vector 370  CacheExtensionFilterTest.server.tcp  "3_rcvd seq"  ETV
370	10471 38 722 722 43592.880803790429 43592.880803790429 1 2308285506 2308285506 2308285506 5.3281819772097e+18
vector 456  CacheExtensionFilterTest.server.tcp  "22_advertised window"  ETV
456	269719 193 722 1041 43592.880803790429 43592.896939990429 5 2308305835 2308306090 11541529940 2.6641382671183e+19
vector 454  CacheExtensionFilterTest.server.tcp  "22_send window"  ETV
454	269449 135 722 1309 43592.880803790429 43592.928764190429 4 20328 20328 81312 1652910336
vector 468  CacheExtensionFilterTest.server.tcp  22_tcpRcvQueueBytes  ETV
468	270701 149 722 1041 43592.880803790429 43592.896939990429 5 0 0 0 0
vector 455  CacheExtensionFilterTest.server.tcp  "22_receive window"  ETV
455	269584 135 722 1041 43592.880803790429 43592.896939990429 4 20328 20328 81312 1652910336
vector 458  CacheExtensionFilterTest.server.tcp  "22_sent ack"  ETV
458	269990 155 722 1041 43592.880803790429 43592.896939990429 4 2308285507 2308285762 9233142793 2.1312731458982e+19
vector 485  CacheExtensionFilterTest.cache.tcp  23_tcpRcvQueueBytes  ETV
485	271803 147 751 1320 43592.882923690429 43592.931860090429 5 0 0 0 0
vector 473  CacheExtensionFilterTest.cache.tcp  "23_advertised window"  ETV
473	271082 186 751 1320 43592.882923690429 43592.931860090429 5 20328 2308306909 9233246944 2.1313118436016e+19
vector 472  CacheExtensionFilterTest.cache.tcp  "23_receive window"  ETV
472	270949 133 751 1320 43592.882923690429 43592.931860090429 4 20328 20328 81312 1652910336
vector 475  CacheExtensionFilterTest.cache.tcp  "23_sent ack"  ETV
475	271306 144 751 1320 43592.882923690429 43592.931860090429 4 0 2308286581 6924859063 1.5984557680804e+19
vector 435  CacheExtensionFilterTest.server.tcp  "3_rcvd seq"  ETV
435	11325 38 771 771 43592.883331790429 43592.883331790429 1 2308286138 2308286138 2308286138 5.328184894883e+18
vector 521  CacheExtensionFilterTest.server.tcp  "24_advertised window"  ETV
521	272537 154 771 1075 43592.883331790429 43592.899843990429 4 2308306467 2308306736 9233226406 2.1313117466114e+19
vector 519  CacheExtensionFilterTest.server.tcp  "24_send window"  ETV
519	272335 101 771 1336 43592.883331790429 43592.932236190429 3 20328 20328 60984 1239682752
vector 533  CacheExtensionFilterTest.server.tcp  24_tcpRcvQueueBytes  ETV
533	273262 119 771 1075 43592.883331790429 43592.899843990429 4 0 0 0 0
vector 520  CacheExtensionFilterTest.server.tcp  "24_receive window"  ETV
520	272436 101 771 1075 43592.883331790429 43592.899843990429 3 20328 20328 60984 1239682752
vector 523  CacheExtensionFilterTest.server.tcp  "24_sent ack"  ETV
523	272730 116 771 1075 43592.883331790429 43592.899843990429 3 2308286139 2308286408 6924858955 1.5984557182215e+19
vector 550  CacheExtensionFilterTest.cache.tcp  25_tcpRcvQueueBytes  ETV
550	274484 177 789 1527 43592.883803690429 43595.904532090429 6 0 0 0 0
vector 538  CacheExtensionFilterTest.cache.tcp  "25_advertised window"  ETV
538	273647 225 789 1527 43592.883803690429 43595.904532090429 6 20328 2308307171 11541554655 2.6641402924677e+19
vector 537  CacheExtensionFilterTest.cache.tcp  "25_receive window"  ETV
537	273480 167 789 1527 43592.883803690429 43595.904532090429 5 20328 20328 101640 2066137920
vector 540  CacheExtensionFilterTest.cache.tcp  "25_sent ack"  ETV
540	273949 183 789 1527 43592.883803690429 43595.904532090429 5 0 2308286843 9233146226 2.1312747307675e+19
vector 500  CacheExtensionFilterTest.server.tcp  "3_rcvd seq"  ETV
500	15225 38 815 815 43592.884211790429 43592.884211790429 1 2308286358 2308286358 2308286358 5.3281859105289e+18
vector 586  CacheExtensionFilterTest.server.tcp  "26_advertised window"  ETV
586	275092 232 815 1517 43592.884211790429 43595.901099990429 6 2308306687 2308306750 13849840374 3.196967973088e+19
vector 584  CacheExtensionFilterTest.server.tcp  "26_send window"  ETV
584	274822 101 815 1544 43592.884211790429 43595.904908190429 3 20328 20328 60984 1239682752
vector 598  CacheExtensionFilterTest.server.tcp  26_tcpRcvQueueBytes  ETV
598	276090 179 815 1517 43592.884211790429 43595.901099990429 6 0 0 0 0
vector 585  CacheExtensionFilterTest.server.tcp  "26_receive window"  ETV
585	274923 169 815 1517 43592.884211790429 43595.901099990429 5 20328 20328 101640 2066137920
vector 588  CacheExtensionFilterTest.server.tcp  "26_sent ack"  ETV
588	275402 194 815 1517 43592.884211790429 43595.901099990429 5 2308286359 2308286422 11541432047 2.6640930739104e+19
vector 262  CacheExtensionFilterTest.cache.tcp  "16_sent seq"  ETV
262	26187 349 849 1530 43592.886523890429 43595.904532090429 9 2308281833 2308288266 20774569580 4.7953637914961e+19
vector 281  CacheExtensionFilterTest.cache.tcp  "17_rcvd seq"  ETV
281	262991 116 879 1155 43592.886931890429 43592.908508090429 3 2308284132 2308284133 6924852398 1.5984526911362e+19
vector 282  CacheExtensionFilterTest.cache.tcp  "17_rcvd ack"  ETV
282	263107 116 879 1155 43592.886931890429 43592.908508090429 3 2308284031 2308284224 6924852479 1.5984527285304e+19
vector 276  CacheExtensionFilterTest.cache.tcp  "17_send window"  ETV
276	262423 67 879 1144 43592.886931890429 43592.903188090429 2 20328 20328 40656 826455168
vector 279  CacheExtensionFilterTest.cache.tcp  "17_sent seq"  ETV
279	262809 38 883 883 43592.886931890429 43592.886931890429 1 2308284031 2308284031 2308284031 5.3281751677696e+18
vector 283  CacheExtensionFilterTest.cache.tcp  "17_unacked bytes"  ETV
283	263223 61 883 1144 43592.886931890429 43592.903188090429 2 0 193 193 37249
vector 346  CacheExtensionFilterTest.cache.tcp  "19_rcvd seq"  ETV
346	265564 116 895 1232 43592.887339890429 43592.915132090429 3 2308285004 2308285005 6924855014 1.5984538988307e+19
vector 347  CacheExtensionFilterTest.cache.tcp  "19_rcvd ack"  ETV
347	265680 116 895 1232 43592.887339890429 43592.915132090429 3 2308284903 2308285194 6924855291 1.5984540267097e+19
vector 341  CacheExtensionFilterTest.cache.tcp  "19_send window"  ETV
341	264996 67 895 1168 43592.887339890429 43592.908884090429 2 20328 20328 40656 826455168
vector 344  CacheExtensionFilterTest.cache.tcp  "19_sent seq"  ETV
344	265382 38 899 899 43592.887339890429 43592.887339890429 1 2308284903 2308284903 2308284903 5.3281791934177e+18
vector 348  CacheExtensionFilterTest.cache.tcp  "19_unacked bytes"  ETV
348	265796 61 899 1168 43592.887339890429 43592.908884090429 2 0 291 291 84681
vector 411  CacheExtensionFilterTest.cache.tcp  "21_rcvd seq"  ETV
411	268302 155 911 1283 43592.887747890429 43592.928388090429 4 2308285608 2308287061 9233143887 2.1312736509513e+19
vector 412  CacheExtensionFilterTest.cache.tcp  "21_rcvd ack"  ETV
412	268457 155 911 1283 43592.887747890429 43592.928388090429 4 2308285507 2308285762 9233142793 2.1312731458982e+19
vector 406  CacheExtensionFilterTest.cache.tcp  "21_send window"  ETV
406	267622 67 911 1249 43592.887747890429 43592.915508090429 2 20328 20328 40656 826455168
vector 409  CacheExtensionFilterTest.cache.tcp  "21_sent seq"  ETV
409	268081 38 915 915 43592.887747890429 43592.887747890429 1 2308285507 2308285507 2308285507 5.3281819818262e+18
vector 413  CacheExtensionFilterTest.cache.tcp  "21_unacked bytes"  ETV
413	268612 61 915 1249 43592.887747890429 43592.915508090429 2 0 255 255 65025
vector 476  CacheExtensionFilterTest.cache.tcp  "23_rcvd seq"  ETV
476	271450 116 927 1320 43592.888155890429 43592.931860090429 3 2308286240 2308286241 6924858722 1.5984556106553e+19
vector 477  CacheExtensionFilterTest.cache.tcp  "23_rcvd ack"  ETV
477	271566 116 927 1320 43592.888155890429 43592.931860090429 3 2308286139 2308286408 6924858955 1.5984557182215e+19
vector 471  CacheExtensionFilterTest.cache.tcp  "23_send window"  ETV
471	270882 67 927 1304 43592.888155890429 43592.928764090429 2 20328 20328 40656 826455168
vector 474  CacheExtensionFilterTest.cache.tcp  "23_sent seq"  ETV
474	271268 38 931 931 43592.888155890429 43592.888155890429 1 2308286139 2308286139 2308286139 5.3281848994995e+18
vector 478  CacheExtensionFilterTest.cache.tcp  "23_unacked bytes"  ETV
478	271682 61 931 1304 43592.888155890429 43592.928764090429 2 0 269 269 72361