version 2
run General-0-20150115-11:44:23-3469
attr configname General
attr datetime 20150115-11:44:23
attr experiment General
attr inifile /home/achraf/Developpement/omnetpp-4.1/projects/INET-OverSim-20101019/src/httptools/cache/webcache/test/extfilter/extfilter.ini
attr iterationvars ""
attr iterationvars2 $repetition=0
attr measurement ""
attr network CacheExtensionFilterTest
attr processid 3469
attr repetition 0
attr replication #0
attr resultdir results
attr runnumber 0
attr seedset 0

vector 94  CacheExtensionFilterTest.clients[0].tcp  11_tcpRcvQueueBytes  ETV
vector 82  CacheExtensionFilterTest.clients[0].tcp  "11_advertised window"  ETV
vector 81  CacheExtensionFilterTest.clients[0].tcp  "11_receive window"  ETV
vector 84  CacheExtensionFilterTest.clients[0].tcp  "11_sent ack"  ETV
vector 61  CacheExtensionFilterTest.cache.tcp  "10_rcvd seq"  ETV
vector 62  CacheExtensionFilterTest.cache.tcp  "10_rcvd ack"  ETV
61	23	43592.755417690429	2308254058
62	23	43592.755417690429	0
vector 130  CacheExtensionFilterTest.cache.tcp  "12_advertised window"  ETV
vector 128  CacheExtensionFilterTest.cache.tcp  "12_send window"  ETV
vector 142  CacheExtensionFilterTest.cache.tcp  12_tcpRcvQueueBytes  ETV
vector 129  CacheExtensionFilterTest.cache.tcp  "12_receive window"  ETV
vector 132  CacheExtensionFilterTest.cache.tcp  "12_sent ack"  ETV
vector 85  CacheExtensionFilterTest.clients[0].tcp  "11_rcvd seq"  ETV
vector 86  CacheExtensionFilterTest.clients[0].tcp  "11_rcvd ack"  ETV
vector 80  CacheExtensionFilterTest.clients[0].tcp  "11_send window"  ETV
vector 83  CacheExtensionFilterTest.clients[0].tcp  "11_sent seq"  ETV
vector 87  CacheExtensionFilterTest.clients[0].tcp  "11_unacked bytes"  ETV
vector 0  CacheExtensionFilterTest.clients[0].ppp[0].queue  queuelength:vector  ETV
attr source  qlen
attr title  "queue length, vector"
vector 133  CacheExtensionFilterTest.cache.tcp  "12_rcvd seq"  ETV
vector 134  CacheExtensionFilterTest.cache.tcp  "12_rcvd ack"  ETV
vector 135  CacheExtensionFilterTest.cache.tcp  "12_unacked bytes"  ETV
vector 73  CacheExtensionFilterTest.cache.tcp  cwnd  ETV
vector 136  CacheExtensionFilterTest.cache.tcp  "12_rcvd dupAcks"  ETV
vector 144  CacheExtensionFilterTest.cache.tcp  12_goodput  ETV
vector 159  CacheExtensionFilterTest.cache.tcp  13_tcpRcvQueueBytes  ETV
vector 147  CacheExtensionFilterTest.cache.tcp  "13_advertised window"  ETV
vector 146  CacheExtensionFilterTest.cache.tcp  "13_receive window"  ETV
vector 149  CacheExtensionFilterTest.cache.tcp  "13_sent ack"  ETV
vector 37  CacheExtensionFilterTest.server.tcp  "3_rcvd seq"  ETV
vector 38  CacheExtensionFilterTest.server.tcp  "3_rcvd ack"  ETV
37	97	43592.759530190429	2308255188
38	97	43592.759530190429	0
vector 195  CacheExtensionFilterTest.server.tcp  "14_advertised window"  ETV
vector 193  CacheExtensionFilterTest.server.tcp  "14_send window"  ETV
vector 207  CacheExtensionFilterTest.server.tcp  14_tcpRcvQueueBytes  ETV
vector 194  CacheExtensionFilterTest.server.tcp  "14_receive window"  ETV
vector 197  CacheExtensionFilterTest.server.tcp  "14_sent ack"  ETV
vector 99  CacheExtensionFilterTest.clients[0].tcp  "measured RTT"  ETV
vector 100  CacheExtensionFilterTest.clients[0].tcp  "smoothed RTT"  ETV
vector 101  CacheExtensionFilterTest.clients[0].tcp  RTTVAR  ETV
vector 102  CacheExtensionFilterTest.clients[0].tcp  RTO  ETV
vector 97  CacheExtensionFilterTest.clients[0].tcp  cwnd  ETV
vector 88  CacheExtensionFilterTest.clients[0].tcp  "11_rcvd dupAcks"  ETV
vector 150  CacheExtensionFilterTest.cache.tcp  "13_rcvd seq"  ETV
vector 151  CacheExtensionFilterTest.cache.tcp  "13_rcvd ack"  ETV
vector 145  CacheExtensionFilterTest.cache.tcp  "13_send window"  ETV
vector 148  CacheExtensionFilterTest.cache.tcp  "13_sent seq"  ETV
vector 152  CacheExtensionFilterTest.cache.tcp  "13_unacked bytes"  ETV
vector 14  CacheExtensionFilterTest.cache.ppp[1].queue  queuelength:vector  ETV
attr source  qlen
attr title  "queue length, vector"
vector 198  CacheExtensionFilterTest.server.tcp  "14_rcvd seq"  ETV
vector 199  CacheExtensionFilterTest.server.tcp  "14_rcvd ack"  ETV
vector 200  CacheExtensionFilterTest.server.tcp  "14_unacked bytes"  ETV
vector 49  CacheExtensionFilterTest.server.tcp  cwnd  ETV
vector 201  CacheExtensionFilterTest.server.tcp  "14_rcvd dupAcks"  ETV
vector 209  CacheExtensionFilterTest.server.tcp  14_goodput  ETV
vector 196  CacheExtensionFilterTest.server.tcp  "14_sent seq"  ETV
vector 4  CacheExtensionFilterTest.server.ppp[0].queue  queuelength:vector  ETV
attr source  qlen
attr title  "queue length, vector"
vector 164  CacheExtensionFilterTest.cache.tcp  "measured RTT"  ETV
vector 165  CacheExtensionFilterTest.cache.tcp  "smoothed RTT"  ETV
vector 166  CacheExtensionFilterTest.cache.tcp  RTTVAR  ETV
vector 167  CacheExtensionFilterTest.cache.tcp  RTO  ETV
vector 162  CacheExtensionFilterTest.cache.tcp  cwnd  ETV
vector 153  CacheExtensionFilterTest.cache.tcp  "13_rcvd dupAcks"  ETV
vector 161  CacheExtensionFilterTest.cache.tcp  13_goodput  ETV
vector 51  CacheExtensionFilterTest.server.tcp  "measured RTT"  ETV
vector 52  CacheExtensionFilterTest.server.tcp  "smoothed RTT"  ETV
vector 53  CacheExtensionFilterTest.server.tcp  RTTVAR  ETV
vector 54  CacheExtensionFilterTest.server.tcp  RTO  ETV
vector 210  CacheExtensionFilterTest.cache.tcpApp[0]  cache.requests.upstream.txdelay:dvector  ETV
attr pattern  cache*.requests.upstream.txdelay
attr source  txdelay
attr title  cache.requests.upstream.txdelay:dvector
vector 131  CacheExtensionFilterTest.cache.tcp  "12_sent seq"  ETV
vector 12  CacheExtensionFilterTest.cache.ppp[0].queue  queuelength:vector  ETV
attr source  qlen
attr title  "queue length, vector"
vector 8  CacheExtensionFilterTest.router.ppp[1].queue  queuelength:vector  ETV
attr source  qlen
attr title  "queue length, vector"
vector 96  CacheExtensionFilterTest.clients[0].tcp  11_goodput  ETV
vector 75  CacheExtensionFilterTest.cache.tcp  "measured RTT"  ETV
vector 76  CacheExtensionFilterTest.cache.tcp  "smoothed RTT"  ETV
vector 77  CacheExtensionFilterTest.cache.tcp  RTTVAR  ETV
vector 78  CacheExtensionFilterTest.cache.tcp  RTO  ETV
vector 225  CacheExtensionFilterTest.clients[0].tcp  15_tcpRcvQueueBytes  ETV
vector 213  CacheExtensionFilterTest.clients[0].tcp  "15_advertised window"  ETV
vector 212  CacheExtensionFilterTest.clients[0].tcp  "15_receive window"  ETV
vector 215  CacheExtensionFilterTest.clients[0].tcp  "15_sent ack"  ETV
vector 6  CacheExtensionFilterTest.router.ppp[0].queue  queuelength:vector  ETV
attr source  qlen
attr title  "queue length, vector"
vector 109  CacheExtensionFilterTest.cache.tcp  "10_rcvd seq"  ETV
vector 110  CacheExtensionFilterTest.cache.tcp  "10_rcvd ack"  ETV
109	387	43592.865699290429	2308281534
110	387	43592.865699290429	0
vector 261  CacheExtensionFilterTest.cache.tcp  "16_advertised window"  ETV
vector 259  CacheExtensionFilterTest.cache.tcp  "16_send window"  ETV
vector 273  CacheExtensionFilterTest.cache.tcp  16_tcpRcvQueueBytes  ETV
vector 260  CacheExtensionFilterTest.cache.tcp  "16_receive window"  ETV
vector 263  CacheExtensionFilterTest.cache.tcp  "16_sent ack"  ETV
vector 216  CacheExtensionFilterTest.clients[0].tcp  "15_rcvd seq"  ETV
vector 217  CacheExtensionFilterTest.clients[0].tcp  "15_rcvd ack"  ETV
vector 211  CacheExtensionFilterTest.clients[0].tcp  "15_send window"  ETV
vector 214  CacheExtensionFilterTest.clients[0].tcp  "15_sent seq"  ETV
vector 218  CacheExtensionFilterTest.clients[0].tcp  "15_unacked bytes"  ETV
vector 264  CacheExtensionFilterTest.cache.tcp  "16_rcvd seq"  ETV
vector 265  CacheExtensionFilterTest.cache.tcp  "16_rcvd ack"  ETV
vector 266  CacheExtensionFilterTest.cache.tcp  "16_unacked bytes"  ETV
vector 121  CacheExtensionFilterTest.cache.tcp  cwnd  ETV
vector 267  CacheExtensionFilterTest.cache.tcp  "16_rcvd dupAcks"  ETV
vector 275  CacheExtensionFilterTest.cache.tcp  16_goodput  ETV
vector 230  CacheExtensionFilterTest.clients[0].tcp  "measured RTT"  ETV
vector 231  CacheExtensionFilterTest.clients[0].tcp  "smoothed RTT"  ETV
vector 232  CacheExtensionFilterTest.clients[0].tcp  RTTVAR  ETV
vector 233  CacheExtensionFilterTest.clients[0].tcp  RTO  ETV
vector 228  CacheExtensionFilterTest.clients[0].tcp  cwnd  ETV
vector 219  CacheExtensionFilterTest.clients[0].tcp  "15_rcvd dupAcks"  ETV
vector 290  CacheExtensionFilterTest.cache.tcp  17_tcpRcvQueueBytes  ETV
vector 278  CacheExtensionFilterTest.cache.tcp  "17_advertised window"  ETV
vector 277  CacheExtensionFilterTest.cache.tcp  "17_receive window"  ETV
vector 280  CacheExtensionFilterTest.cache.tcp  "17_sent ack"  ETV
vector 174  CacheExtensionFilterTest.server.tcp  "3_rcvd seq"  ETV
vector 175  CacheExtensionFilterTest.server.tcp  "3_rcvd ack"  ETV
174	627	43592.874899790429	2308284030
175	627	43592.874899790429	0
vector 326  CacheExtensionFilterTest.server.tcp  "18_advertised window"  ETV
vector 324  CacheExtensionFilterTest.server.tcp  "18_send window"  ETV
vector 338  CacheExtensionFilterTest.server.tcp  18_tcpRcvQueueBytes  ETV
vector 325  CacheExtensionFilterTest.server.tcp  "18_receive window"  ETV
vector 328  CacheExtensionFilterTest.server.tcp  "18_sent ack"  ETV
vector 355  CacheExtensionFilterTest.cache.tcp  19_tcpRcvQueueBytes  ETV
vector 343  CacheExtensionFilterTest.cache.tcp  "19_advertised window"  ETV
vector 342  CacheExtensionFilterTest.cache.tcp  "19_receive window"  ETV
vector 345  CacheExtensionFilterTest.cache.tcp  "19_sent ack"  ETV
vector 305  CacheExtensionFilterTest.server.tcp  "3_rcvd seq"  ETV
vector 306  CacheExtensionFilterTest.server.tcp  "3_rcvd ack"  ETV
305	678	43592.878387790429	2308284902
306	678	43592.878387790429	0
vector 391  CacheExtensionFilterTest.server.tcp  "20_advertised window"  ETV
vector 389  CacheExtensionFilterTest.server.tcp  "20_send window"  ETV
vector 403  CacheExtensionFilterTest.server.tcp  20_tcpRcvQueueBytes  ETV
vector 390  CacheExtensionFilterTest.server.tcp  "20_receive window"  ETV
vector 393  CacheExtensionFilterTest.server.tcp  "20_sent ack"  ETV
vector 420  CacheExtensionFilterTest.cache.tcp  21_tcpRcvQueueBytes  ETV
vector 408  CacheExtensionFilterTest.cache.tcp  "21_advertised window"  ETV
vector 407  CacheExtensionFilterTest.cache.tcp  "21_receive window"  ETV
vector 410  CacheExtensionFilterTest.cache.tcp  "21_sent ack"  ETV
vector 370  CacheExtensionFilterTest.server.tcp  "3_rcvd seq"  ETV
vector 371  CacheExtensionFilterTest.server.tcp  "3_rcvd ack"  ETV
370	722	43592.880803790429	2308285506
371	722	43592.880803790429	0
vector 456  CacheExtensionFilterTest.server.tcp  "22_advertised window"  ETV
vector 454  CacheExtensionFilterTest.server.tcp  "22_send window"  ETV
vector 468  CacheExtensionFilterTest.server.tcp  22_tcpRcvQueueBytes  ETV
vector 455  CacheExtensionFilterTest.server.tcp  "22_receive window"  ETV
vector 458  CacheExtensionFilterTest.server.tcp  "22_sent ack"  ETV
vector 485  CacheExtensionFilterTest.cache.tcp  23_tcpRcvQueueBytes  ETV
vector 473  CacheExtensionFilterTest.cache.tcp  "23_advertised window"  ETV
vector 472  CacheExtensionFilterTest.cache.tcp  "23_receive window"  ETV
vector 475  CacheExtensionFilterTest.cache.tcp  "23_sent ack"  ETV
vector 435  CacheExtensionFilterTest.server.tcp  "3_rcvd seq"  ETV
vector 436  CacheExtensionFilterTest.server.tcp  "3_rcvd ack"  ETV
435	771	43592.883331790429	2308286138
436	771	43592.883331790429	0
vector 521  CacheExtensionFilterTest.server.tcp  "24_advertised window"  ETV
vector 519  CacheExtensionFilterTest.server.tcp  "24_send window"  ETV
vector 533  CacheExtensionFilterTest.server.tcp  24_tcpRcvQueueBytes  ETV
vector 520  CacheExtensionFilterTest.server.tcp  "24_receive window"  ETV
vector 523  CacheExtensionFilterTest.server.tcp  "24_sent ack"  ETV
vector 550  CacheExtensionFilterTest.cache.tcp  25_tcpRcvQueueBytes  ETV
vector 538  CacheExtensionFilterTest.cache.tcp  "25_advertised window"  ETV
vector 537  CacheExtensionFilterTest.cache.tcp  "25_receive window"  ETV
vector 540  CacheExtensionFilterTest.cache.tcp  "25_sent ack"  ETV
73	62	43592.756986090429	2904
73	272	43592.831586890429	4356
73	304	43592.843578890429	5808
73	336	43592.856323290429	7260
73	369	43592.865259290429	8712
75	272	43592.831586890429	0.0247364
75	336	43592.856323290429	0.0247364
76	272	43592.831586890429	0.00309205
76	336	43592.856323290429	0.00579759375
77	272	43592.831586890429	0.65934205
77	336	43592.856323290429	0.5796298375
78	272	43592.831586890429	2.64046025
78	336	43592.856323290429	2.32431694375
128	23	43592.755417690429	20328
128	62	43592.756986090429	20328
128	272	43592.831586890429	20328
128	304	43592.843578890429	20328
128	336	43592.856323290429	20328
128	369	43592.865259290429	20328
129	23	43592.755417690429	20328
129	74	43592.759122090429	20328
129	220	43592.806850490429	20328
129	220	43592.806850490429	20328
129	272	43592.831586890429	20328
129	272	43592.831586890429	20328
129	397	43592.866075290429	20328
129	400	43592.866075290429	20328
130	23	43592.755417690429	2308274387
130	23	43592.755417690429	2308274387
130	74	43592.759122090429	2308274497
130	220	43592.806850490429	2308274497
130	220	43592.806850490429	2308274497
130	272	43592.831586890429	2308274497
130	272	43592.831586890429	2308274497
130	397	43592.866075290429	2308274498
130	400	43592.866075290429	2308274498
131	220	43592.806850490429	2308254263
131	220	43592.806850490429	2308255715
131	272	43592.831586890429	2308257167
131	272	43592.831586890429	2308258619
132	23	43592.755417690429	2308254059
132	74	43592.759122090429	2308254169
132	220	43592.806850490429	2308254169
132	220	43592.806850490429	2308254169
132	272	43592.831586890429	2308254169
132	272	43592.831586890429	2308254169
132	397	43592.866075290429	2308254170
132	400	43592.866075290429	2308254170
133	62	43592.756986090429	2308254059
133	74	43592.759122090429	2308254059
133	272	43592.831586890429	2308254169
133	304	43592.843578890429	2308254169
133	336	43592.856323290429	2308254169
133	369	43592.865259290429	2308254169
133	397	43592.866075290429	2308254169
133	803	43592.884179690429	2308254170
134	62	43592.756986090429	2308254263
134	74	43592.759122090429	2308254263
134	272	43592.831586890429	2308255715
134	304	43592.843578890429	2308257167
134	336	43592.856323290429	2308258619
134	369	43592.865259290429	2308259689
134	397	43592.866075290429	2308259689
134	803	43592.884179690429	2308259690
135	62	43592.756986090429	0
135	220	43592.806850490429	2904
135	272	43592.831586890429	1452
135	272	43592.831586890429	3974
135	304	43592.843578890429	2522
135	336	43592.856323290429	1070
135	369	43592.865259290429	0
135	400	43592.866075290429	1
136	62	43592.756986090429	0
136	74	43592.759122090429	0
136	272	43592.831586890429	0
136	304	43592.843578890429	0
136	336	43592.856323290429	0
136	369	43592.865259290429	0
136	397	43592.866075290429	0
142	23	43592.755417690429	0
142	74	43592.759122090429	0
142	74	43592.759122090429	0
142	220	43592.806850490429	0
142	220	43592.806850490429	0
142	272	43592.831586890429	0
142	272	43592.831586890429	0
142	397	43592.866075290429	0
142	400	43592.866075290429	0
144	74	43592.759122090429	110
vector 500  CacheExtensionFilterTest.server.tcp  "3_rcvd seq"  ETV
vector 501  CacheExtensionFilterTest.server.tcp  "3_rcvd ack"  ETV
500	815	43592.884211790429	2308286358
501	815	43592.884211790429	0
vector 586  CacheExtensionFilterTest.server.tcp  "26_advertised window"  ETV
vector 584  CacheExtensionFilterTest.server.tcp  "26_send window"  ETV
vector 598  CacheExtensionFilterTest.server.tcp  26_tcpRcvQueueBytes  ETV
vector 585  CacheExtensionFilterTest.server.tcp  "26_receive window"  ETV
vector 588  CacheExtensionFilterTest.server.tcp  "26_sent ack"  ETV
vector 262  CacheExtensionFilterTest.cache.tcp  "16_sent seq"  ETV
vector 281  CacheExtensionFilterTest.cache.tcp  "17_rcvd seq"  ETV
vector 282  CacheExtensionFilterTest.cache.tcp  "17_rcvd ack"  ETV
vector 276  CacheExtensionFilterTest.cache.tcp  "17_send window"  ETV
vector 279  CacheExtensionFilterTest.cache.tcp  "17_sent seq"  ETV
vector 283  CacheExtensionFilterTest.cache.tcp  "17_unacked bytes"  ETV
vector 346  CacheExtensionFilterTest.cache.tcp  "19_rcvd seq"  ETV
vector 347  CacheExtensionFilterTest.cache.tcp  "19_rcvd ack"  ETV
vector 341  CacheExtensionFilterTest.cache.tcp  "19_send window"  ETV
vector 344  CacheExtensionFilterTest.cache.tcp  "19_sent seq"  ETV
vector 348  CacheExtensionFilterTest.cache.tcp  "19_unacked bytes"  ETV
vector 411  CacheExtensionFilterTest.cache.tcp  "21_rcvd seq"  ETV
vector 412  CacheExtensionFilterTest.cache.tcp  "21_rcvd ack"  ETV
vector 406  CacheExtensionFilterTest.cache.tcp  "21_send window"  ETV
vector 409  CacheExtensionFilterTest.cache.tcp  "21_sent seq"  ETV
vector 413  CacheExtensionFilterTest.cache.tcp  "21_unacked bytes"  ETV
vector 476  CacheExtensionFilterTest.cache.tcp  "23_rcvd seq"  ETV
vector 477  CacheExtensionFilterTest.cache.tcp  "23_rcvd ack"  ETV
vector 471  CacheExtensionFilterTest.cache.tcp  "23_send window"  ETV
vector 474  CacheExtensionFilterTest.cache.tcp  "23_sent seq"  ETV
vector 478  CacheExtensionFilterTest.cache.tcp  "23_unacked bytes"  ETV
vector 541  CacheExtensionFilterTest.cache.tcp  "25_rcvd seq"  ETV
vector 542  CacheExtensionFilterTest.cache.tcp  "25_rcvd ack"  ETV
vector 536  CacheExtensionFilterTest.cache.tcp  "25_send window"  ETV
vector 539  CacheExtensionFilterTest.cache.tcp  "25_sent seq"  ETV
vector 543  CacheExtensionFilterTest.cache.tcp  "25_unacked bytes"  ETV
vector 329  CacheExtensionFilterTest.server.tcp  "18_rcvd seq"  ETV
vector 330  CacheExtensionFilterTest.server.tcp  "18_rcvd ack"  ETV
vector 331  CacheExtensionFilterTest.server.tcp  "18_unacked bytes"  ETV
vector 186  CacheExtensionFilterTest.server.tcp  cwnd  ETV
vector 332  CacheExtensionFilterTest.server.tcp  "18_rcvd dupAcks"  ETV
vector 340  CacheExtensionFilterTest.server.tcp  18_goodput  ETV
vector 327  CacheExtensionFilterTest.server.tcp  "18_sent seq"  ETV
vector 394  CacheExtensionFilterTest.server.tcp  "20_rcvd seq"  ETV
vector 395  CacheExtensionFilterTest.server.tcp  "20_rcvd ack"  ETV
vector 396  CacheExtensionFilterTest.server.tcp  "20_unacked bytes"  ETV
vector 317  CacheExtensionFilterTest.server.tcp  cwnd  ETV
vector 397  CacheExtensionFilterTest.server.tcp  "20_rcvd dupAcks"  ETV
vector 405  CacheExtensionFilterTest.server.tcp  20_goodput  ETV
vector 392  CacheExtensionFilterTest.server.tcp  "20_sent seq"  ETV
vector 459  CacheExtensionFilterTest.server.tcp  "22_rcvd seq"  ETV
vector 460  CacheExtensionFilterTest.server.tcp  "22_rcvd ack"  ETV
vector 461  CacheExtensionFilterTest.server.tcp  "22_unacked bytes"  ETV
vector 382  CacheExtensionFilterTest.server.tcp  cwnd  ETV
vector 462  CacheExtensionFilterTest.server.tcp  "22_rcvd dupAcks"  ETV
vector 470  CacheExtensionFilterTest.server.tcp  22_goodput  ETV
vector 457  CacheExtensionFilterTest.server.tcp  "22_sent seq"  ETV
vector 524  CacheExtensionFilterTest.server.tcp  "24_rcvd seq"  ETV
vector 525  CacheExtensionFilterTest.server.tcp  "24_rcvd ack"  ETV
vector 526  CacheExtensionFilterTest.server.tcp  "24_unacked bytes"  ETV
vector 447  CacheExtensionFilterTest.server.tcp  cwnd  ETV
vector 527  CacheExtensionFilterTest.server.tcp  "24_rcvd dupAcks"  ETV
vector 535  CacheExtensionFilterTest.server.tcp  24_goodput  ETV
vector 522  CacheExtensionFilterTest.server.tcp  "24_sent seq"  ETV
vector 589  CacheExtensionFilterTest.server.tcp  "26_rcvd seq"  ETV
vector 590  CacheExtensionFilterTest.server.tcp  "26_rcvd ack"  ETV
vector 591  CacheExtensionFilterTest.server.tcp  "26_unacked bytes"  ETV
vector 512  CacheExtensionFilterTest.server.tcp  cwnd  ETV
vector 592  CacheExtensionFilterTest.server.tcp  "26_rcvd dupAcks"  ETV
vector 600  CacheExtensionFilterTest.server.tcp  26_goodput  ETV
vector 587  CacheExtensionFilterTest.server.tcp  "26_sent seq"  ETV
vector 24  CacheExtensionFilterTest.server.ppp[0].queue  drops  ETV
vector 5  CacheExtensionFilterTest.server.ppp[0].queue  queuedrops:vector  ETV
attr source  qdrop
attr title  "packets dropped by queue, vector"
vector 295  CacheExtensionFilterTest.cache.tcp  "measured RTT"  ETV
vector 296  CacheExtensionFilterTest.cache.tcp  "smoothed RTT"  ETV
vector 297  CacheExtensionFilterTest.cache.tcp  RTTVAR  ETV
vector 298  CacheExtensionFilterTest.cache.tcp  RTO  ETV
vector 293  CacheExtensionFilterTest.cache.tcp  cwnd  ETV
vector 284  CacheExtensionFilterTest.cache.tcp  "17_rcvd dupAcks"  ETV
vector 292  CacheExtensionFilterTest.cache.tcp  17_goodput  ETV
vector 360  CacheExtensionFilterTest.cache.tcp  "measured RTT"  ETV
vector 361  CacheExtensionFilterTest.cache.tcp  "smoothed RTT"  ETV
vector 362  CacheExtensionFilterTest.cache.tcp  RTTVAR  ETV
vector 363  CacheExtensionFilterTest.cache.tcp  RTO  ETV
vector 358  CacheExtensionFilterTest.cache.tcp  cwnd  ETV
vector 349  CacheExtensionFilterTest.cache.tcp  "19_rcvd dupAcks"  ETV
vector 188  CacheExtensionFilterTest.server.tcp  "measured RTT"  ETV
vector 189  CacheExtensionFilterTest.server.tcp  "smoothed RTT"  ETV
vector 190  CacheExtensionFilterTest.server.tcp  RTTVAR  ETV
vector 191  CacheExtensionFilterTest.server.tcp  RTO  ETV
vector 227  CacheExtensionFilterTest.clients[0].tcp  15_goodput  ETV
vector 123  CacheExtensionFilterTest.cache.tcp  "measured RTT"  ETV
vector 124  CacheExtensionFilterTest.cache.tcp  "smoothed RTT"  ETV
vector 125  CacheExtensionFilterTest.cache.tcp  RTTVAR  ETV
vector 126  CacheExtensionFilterTest.cache.tcp  RTO  ETV
vector 357  CacheExtensionFilterTest.cache.tcp  19_goodput  ETV
vector 425  CacheExtensionFilterTest.cache.tcp  "measured RTT"  ETV
vector 426  CacheExtensionFilterTest.cache.tcp  "smoothed RTT"  ETV
vector 427  CacheExtensionFilterTest.cache.tcp  RTTVAR  ETV
vector 428  CacheExtensionFilterTest.cache.tcp  RTO  ETV
vector 423  CacheExtensionFilterTest.cache.tcp  cwnd  ETV
vector 414  CacheExtensionFilterTest.cache.tcp  "21_rcvd dupAcks"  ETV
vector 319  CacheExtensionFilterTest.server.tcp  "measured RTT"  ETV
vector 320  CacheExtensionFilterTest.server.tcp  "smoothed RTT"  ETV
vector 321  CacheExtensionFilterTest.server.tcp  RTTVAR  ETV
vector 322  CacheExtensionFilterTest.server.tcp  RTO  ETV
vector 422  CacheExtensionFilterTest.cache.tcp  21_goodput  ETV
vector 384  CacheExtensionFilterTest.server.tcp  "measured RTT"  ETV
vector 385  CacheExtensionFilterTest.server.tcp  "smoothed RTT"  ETV
vector 386  CacheExtensionFilterTest.server.tcp  RTTVAR  ETV
vector 387  CacheExtensionFilterTest.server.tcp  RTO  ETV
vector 490  CacheExtensionFilterTest.cache.tcp  "measured RTT"  ETV
vector 491  CacheExtensionFilterTest.cache.tcp  "smoothed RTT"  ETV
vector 492  CacheExtensionFilterTest.cache.tcp  RTTVAR  ETV
vector 493  CacheExtensionFilterTest.cache.tcp  RTO  ETV
vector 488  CacheExtensionFilterTest.cache.tcp  cwnd  ETV
vector 479  CacheExtensionFilterTest.cache.tcp  "23_rcvd dupAcks"  ETV
vector 487  CacheExtensionFilterTest.cache.tcp  23_goodput  ETV
vector 449  CacheExtensionFilterTest.server.tcp  "measured RTT"  ETV
vector 450  CacheExtensionFilterTest.server.tcp  "smoothed RTT"  ETV
vector 451  CacheExtensionFilterTest.server.tcp  RTTVAR  ETV
vector 452  CacheExtensionFilterTest.server.tcp  RTO  ETV
vector 559  CacheExtensionFilterTest.cache.tcp  numRTOs  ETV
vector 554  CacheExtensionFilterTest.cache.tcp  ssthresh  ETV
vector 553  CacheExtensionFilterTest.cache.tcp  cwnd  ETV
vector 544  CacheExtensionFilterTest.cache.tcp  "25_rcvd dupAcks"  ETV
vector 518  CacheExtensionFilterTest.server.tcp  numRTOs  ETV
vector 513  CacheExtensionFilterTest.server.tcp  ssthresh  ETV
vector 552  CacheExtensionFilterTest.cache.tcp  25_goodput  ETV
121	501	43592.867267690429	2904
121	1195	43592.911260290429	4356
121	1226	43592.912868290429	5808
121	1358	43592.935996690429	7260
121	1388	43592.942628690429	8712
121	1417	43592.948884690429	10164
121	1450	43592.960876690429	11616
121	1473	43592.961772690429	13068
121	1495	43592.964876690429	14520
121	1584	43595.912164490429	15972
123	1195	43592.911260290429	0.0247364
123	1358	43592.935996690429	0.0247364
123	1584	43595.912164490429	0.0076324
124	1195	43592.911260290429	0.00309205
124	1358	43592.935996690429	0.00579759375
124	1584	43595.912164490429	0.006026944531
125	1195	43592.911260290429	0.65934205
125	1358	43592.935996690429	0.5796298375
125	1584	43595.912164490429	0.507405458594
126	1195	43592.911260290429	2.64046025
126	1358	43592.935996690429	2.32431694375
126	1584	43595.912164490429	2.035648778907
259	387	43592.865699290429	20328
259	501	43592.867267690429	20328
259	1195	43592.911260290429	20328
259	1226	43592.912868290429	20328
259	1358	43592.935996690429	20328
259	1388	43592.942628690429	20328
259	1417	43592.948884690429	20328
259	1450	43592.960876690429	20328
259	1473	43592.961772690429	20328
259	1495	43592.964876690429	20328
259	1584	43595.912164490429	20328
260	387	43592.865699290429	20328
260	521	43592.870667690429	20328
260	549	43592.872539690429	20328
260	604	43592.874491690429	20328
260	655	43592.877979690429	20328
260	699	43592.880395690429	20328
260	748	43592.882923690429	20328
260	786	43592.883803690429	20328
260	849	43592.886523890429	20328
260	849	43592.886523890429	20328
260	1195	43592.911260290429	20328
260	1195	43592.911260290429	20328
260	1235	43592.915132090429	20328
260	1286	43592.928388090429	20328
260	1286	43592.928388090429	20328
260	1323	43592.931860090429	20328
260	1530	43595.904532090429	20328
260	1589	43595.912540490429	20328
260	1592	43595.912540490429	20328
261	387	43592.865699290429	2308301863
261	387	43592.865699290429	2308301863
261	521	43592.870667690429	2308302052
261	549	43592.872539690429	2308302239
261	604	43592.874491690429	2308302432
261	655	43592.877979690429	2308302723
261	699	43592.880395690429	2308302978
261	748	43592.882923690429	2308303247
261	786	43592.883803690429	2308303310
261	849	43592.886523890429	2308303310
261	849	43592.886523890429	2308303310
261	1195	43592.911260290429	2308303310
261	1195	43592.911260290429	2308303310
261	1235	43592.915132090429	2308303310
261	1286	43592.928388090429	2308303310
261	1286	43592.928388090429	2308303310
261	1323	43592.931860090429	2308303310
261	1530	43595.904532090429	2308303310
261	1589	43595.912540490429	2308303311
261	1592	43595.912540490429	2308303311
262	849	43592.886523890429	2308281833
262	849	43592.886523890429	2308283285
262	1195	43592.911260290429	2308283439
262	1195	43592.911260290429	2308284891
262	1235	43592.915132090429	2308285673
262	1286	43592.928388090429	2308286408
262	1286	43592.928388090429	2308287860
262	1323	43592.931860090429	2308287925
262	1530	43595.904532090429	2308288266
263	387	43592.865699290429	2308281535
263	521	43592.870667690429	2308281724
263	549	43592.872539690429	2308281911
263	604	43592.874491690429	2308282104
263	655	43592.877979690429	2308282395
263	699	43592.880395690429	2308282650
263	748	43592.882923690429	2308282919
263	786	43592.883803690429	2308282982
263	849	43592.886523890429	2308282982
263	849	43592.886523890429	2308282982
263	1195	43592.911260290429	2308282982
263	1195	43592.911260290429	2308282982
263	1235	43592.915132090429	2308282982
263	1286	43592.928388090429	2308282982
263	1286	43592.928388090429	2308282982
263	1323	43592.931860090429	2308282982
263	1530	43595.904532090429	2308282982
263	1589	43595.912540490429	2308282983
263	1592	43595.912540490429	2308282983
264	501	43592.867267690429	2308281535
264	521	43592.870667690429	2308281535
264	549	43592.872539690429	2308281724
264	604	43592.874491690429	2308281911
264	655	43592.877979690429	2308282104
264	699	43592.880395690429	2308282395
264	748	43592.882923690429	2308282650
264	786	43592.883803690429	2308282919
264	1195	43592.911260290429	2308282982
264	1226	43592.912868290429	2308282982
264	1358	43592.935996690429	2308282982
264	1388	43592.942628690429	2308282982
264	1417	43592.948884690429	2308282982
264	1450	43592.960876690429	2308282982
264	1473	43592.961772690429	2308282982
264	1495	43592.964876690429	2308282982
264	1584	43595.912164490429	2308282982
264	1589	43595.912540490429	2308282982
264	1641	43595.914420890429	2308282983
265	501	43592.867267690429	2308281833
265	521	43592.870667690429	2308281833
265	549	43592.872539690429	2308281833
265	604	43592.874491690429	2308281833
265	655	43592.877979690429	2308281833
265	699	43592.880395690429	2308281833
265	748	43592.882923690429	2308281833
265	786	43592.883803690429	2308281833
265	1195	43592.911260290429	2308283285
265	1226	43592.912868290429	2308283439
265	1358	43592.935996690429	2308284891
265	1388	43592.942628690429	2308285673
265	1417	43592.948884690429	2308286408
265	1450	43592.960876690429	2308287860
265	1473	43592.961772690429	2308287925
265	1495	43592.964876690429	2308288266
265	1584	43595.912164490429	2308288649
265	1589	43595.912540490429	2308288649
265	1641	43595.914420890429	2308288650
266	501	43592.867267690429	0
266	849	43592.886523890429	1606
266	1195	43592.911260290429	154
266	1195	43592.911260290429	2388
266	1226	43592.912868290429	2234
266	1235	43592.915132090429	2969
266	1286	43592.928388090429	4486
266	1323	43592.931860090429	4827
266	1358	43592.935996690429	3375
266	1388	43592.942628690429	2593
266	1417	43592.948884690429	1858
266	1450	43592.960876690429	406
266	1473	43592.961772690429	341
266	1495	43592.964876690429	0
266	1530	43595.904532090429	383
266	1584	43595.912164490429	0
266	1592	43595.912540490429	1
267	501	43592.867267690429	0
267	521	43592.870667690429	0
267	549	43592.872539690429	0
267	604	43592.874491690429	0
267	655	43592.877979690429	0
267	699	43592.880395690429	0
267	748	43592.882923690429	0
267	786	43592.883803690429	0
267	1195	43592.911260290429	0
267	1226	43592.912868290429	0
267	1358	43592.935996690429	0
267	1388	43592.942628690429	0
267	1417	43592.948884690429	0
267	1450	43592.960876690429	0
267	1473	43592.961772690429	0
267	1495	43592.964876690429	0
267	1584	43595.912164490429	0
267	1589	43595.912540490429	0
273	387	43592.865699290429	0
273	521	43592.870667690429	0
273	521	43592.870667690429	0
273	549	43592.872539690429	0
273	549	43592.872539690429	0
273	604	43592.874491690429	0